9994522
  -OEChem-01202622362D

 37 40  0     1  0  0  0  0  0999 V2000
    3.7320    1.4319    0.0000 O   0  0  0  0  0  0  0  0  0  0  0  0
    8.1301    1.9111    0.0000 O   0  0  0  0  0  0  0  0  0  0  0  0
    4.6497    2.9457    0.0000 O   0  0  0  0  0  0  0  0  0  0  0  0
    8.0011   -0.2560    0.0000 N   0  0  0  0  0  0  0  0  0  0  0  0
    5.5321    0.4111    0.0000 C   0  0  0  0  0  0  0  0  0  0  0  0
    6.3981   -0.0889    0.0000 C   0  0  0  0  0  0  0  0  0  0  0  0
    4.6381   -0.1236    0.0000 C   0  0  0  0  0  0  0  0  0  0  0  0
    3.7320    0.3903    0.0000 C   0  0  3  0  0  0  0  0  0  0  0  0
    7.2641    0.4111    0.0000 C   0  0  0  0  0  0  0  0  0  0  0  0
    5.5321    1.4111    0.0000 C   0  0  0  0  0  0  0  0  0  0  0  0
    6.6073   -1.0608    0.0000 C   0  0  0  0  0  0  0  0  0  0  0  0
    7.5960   -1.1638    0.0000 C   0  0  0  0  0  0  0  0  0  0  0  0
    7.2641    1.4111    0.0000 C   0  0  0  0  0  0  0  0  0  0  0  0
    6.3981    1.9111    0.0000 C   0  0  0  0  0  0  0  0  0  0  0  0
    4.6381    1.9457    0.0000 C   0  0  0  0  0  0  0  0  0  0  0  0
    2.8680   -0.1131    0.0000 C   0  0  0  0  0  0  0  0  0  0  0  0
    5.9865   -1.8895    0.0000 C   0  0  0  0  0  0  0  0  0  0  0  0
    8.0325   -2.1028    0.0000 C   0  0  0  0  0  0  0  0  0  0  0  0
    6.4012   -2.8383    0.0000 C   0  0  0  0  0  0  0  0  0  0  0  0
    2.0000    0.3836    0.0000 C   0  0  0  0  0  0  0  0  0  0  0  0
    7.4311   -2.9457    0.0000 C   0  0  0  0  0  0  0  0  0  0  0  0
    2.8718   -1.1131    0.0000 C   0  0  0  0  0  0  0  0  0  0  0  0
    4.2445   -0.6026    0.0000 H   0  0  0  0  0  0  0  0  0  0  0  0
    5.0427   -0.5934    0.0000 H   0  0  0  0  0  0  0  0  0  0  0  0
    3.1945    0.6992    0.0000 H   0  0  0  0  0  0  0  0  0  0  0  0
    8.6078   -0.1282    0.0000 H   0  0  0  0  0  0  0  0  0  0  0  0
    6.3981    2.5311    0.0000 H   0  0  0  0  0  0  0  0  0  0  0  0
    5.3707   -1.8181    0.0000 H   0  0  0  0  0  0  0  0  0  0  0  0
    8.6499   -2.1599    0.0000 H   0  0  0  0  0  0  0  0  0  0  0  0
    6.0353   -3.3388    0.0000 H   0  0  0  0  0  0  0  0  0  0  0  0
    2.3079    0.9217    0.0000 H   0  0  0  0  0  0  0  0  0  0  0  0
    1.4619    0.6915    0.0000 H   0  0  0  0  0  0  0  0  0  0  0  0
    1.6921   -0.1546    0.0000 H   0  0  0  0  0  0  0  0  0  0  0  0
    7.6859   -3.5109    0.0000 H   0  0  0  0  0  0  0  0  0  0  0  0
    2.3361   -1.4251    0.0000 H   0  0  0  0  0  0  0  0  0  0  0  0
    3.4099   -1.4210    0.0000 H   0  0  0  0  0  0  0  0  0  0  0  0
    8.1301    2.5311    0.0000 H   0  0  0  0  0  0  0  0  0  0  0  0
  1  8  1  0  0  0  0
  1 15  1  0  0  0  0
  2 13  1  0  0  0  0
  2 37  1  0  0  0  0
  3 15  2  0  0  0  0
  4  9  1  0  0  0  0
  4 12  1  0  0  0  0
  4 26  1  0  0  0  0
  5  6  2  0  0  0  0
  5  7  1  0  0  0  0
  5 10  1  0  0  0  0
  6  9  1  0  0  0  0
  6 11  1  0  0  0  0
  7  8  1  0  0  0  0
  7 23  1  0  0  0  0
  7 24  1  0  0  0  0
  8 16  1  0  0  0  0
  8 25  1  0  0  0  0
  9 13  2  0  0  0  0
 10 14  2  0  0  0  0
 10 15  1  0  0  0  0
 11 12  1  0  0  0  0
 11 17  2  0  0  0  0
 12 18  2  0  0  0  0
 13 14  1  0  0  0  0
 14 27  1  0  0  0  0
 16 20  1  0  0  0  0
 16 22  2  0  0  0  0
 17 19  1  0  0  0  0
 17 28  1  0  0  0  0
 18 21  1  0  0  0  0
 18 29  1  0  0  0  0
 19 21  2  0  0  0  0
 19 30  1  0  0  0  0
 20 31  1  0  0  0  0
 20 32  1  0  0  0  0
 20 33  1  0  0  0  0
 21 34  1  0  0  0  0
 22 35  1  0  0  0  0
 22 36  1  0  0  0  0
M  END
> <PUBCHEM_COMPOUND_CID>
9994522

> <PUBCHEM_COMPOUND_CANONICALIZED>
1

> <PUBCHEM_CACTVS_COMPLEXITY>
491

> <PUBCHEM_CACTVS_HBOND_ACCEPTOR>
3

> <PUBCHEM_CACTVS_HBOND_DONOR>
2

> <PUBCHEM_CACTVS_ROTATABLE_BOND>
1

> <PUBCHEM_CACTVS_SUBSKEYS>
AAADccB6MAAAAAAAAAAAAAAAAAAAAWAAAAA0YIAAAAAAAFiR/AAAHgAQCAAADByhngIyzvLJlgCoAyTyTASCgCAlYiAImSE3bNgKJvLStZuGcQhk0BHY+Yfa3fPeqAADQAASEABQAAaAACQgAAAAAAAAAA==

> <PUBCHEM_IUPAC_OPENEYE_NAME>
6-hydroxy-2-isopropenyl-2,7-dihydro-1H-pyrano[3,4-c]carbazol-4-one

> <PUBCHEM_IUPAC_CAS_NAME>
6-hydroxy-2-(1-methylethenyl)-2,7-dihydro-1H-pyrano[3,4-c]carbazol-4-one

> <PUBCHEM_IUPAC_NAME_MARKUP>
6-hydroxy-2-prop-1-en-2-yl-2,7-dihydro-1<I>H</I>-pyrano[3,4-c]carbazol-4-one

> <PUBCHEM_IUPAC_NAME>
6-hydroxy-2-prop-1-en-2-yl-2,7-dihydro-1H-pyrano[3,4-c]carbazol-4-one

> <PUBCHEM_IUPAC_SYSTEMATIC_NAME>
6-oxidanyl-2-prop-1-en-2-yl-2,7-dihydro-1H-pyrano[3,4-c]carbazol-4-one

> <PUBCHEM_IUPAC_TRADITIONAL_NAME>
6-hydroxy-2-isopropenyl-2,7-dihydro-1H-pyrano[3,4-c]carbazol-4-one

> <PUBCHEM_IUPAC_INCHI>
InChI=1S/C18H15NO3/c1-9(2)15-8-11-12(18(21)22-15)7-14(20)17-16(11)10-5-3-4-6-13(10)19-17/h3-7,15,19-20H,1,8H2,2H3

> <PUBCHEM_IUPAC_INCHIKEY>
ZIULAOJCWJBSFK-UHFFFAOYSA-N

> <PUBCHEM_XLOGP3_AA>
4.2

> <PUBCHEM_EXACT_MASS>
293.10519334

> <PUBCHEM_MOLECULAR_FORMULA>
C18H15NO3

> <PUBCHEM_MOLECULAR_WEIGHT>
293.3

> <PUBCHEM_SMILES>
CC(=C)C1CC2=C3C4=CC=CC=C4NC3=C(C=C2C(=O)O1)O

> <PUBCHEM_CONNECTIVITY_SMILES>
CC(=C)C1CC2=C3C4=CC=CC=C4NC3=C(C=C2C(=O)O1)O

> <PUBCHEM_CACTVS_TPSA>
62.3

> <PUBCHEM_MONOISOTOPIC_WEIGHT>
293.10519334

> <PUBCHEM_TOTAL_CHARGE>
0

> <PUBCHEM_HEAVY_ATOM_COUNT>
22

> <PUBCHEM_ATOM_DEF_STEREO_COUNT>
0

> <PUBCHEM_ATOM_UDEF_STEREO_COUNT>
1

> <PUBCHEM_BOND_DEF_STEREO_COUNT>
0

> <PUBCHEM_BOND_UDEF_STEREO_COUNT>
0

> <PUBCHEM_ISOTOPIC_ATOM_COUNT>
0

> <PUBCHEM_COMPONENT_COUNT>
1

> <PUBCHEM_CACTVS_TAUTO_COUNT>
-1

> <PUBCHEM_COORDINATE_TYPE>
1
5
255

> <PUBCHEM_BONDANNOTATIONS>
10  14  8
11  12  8
11  17  8
12  18  8
13  14  8
17  19  8
18  21  8
19  21  8
4  12  8
4  9  8
5  10  8
5  6  8
6  11  8
6  9  8
8  16  3
9  13  8

$$$$
