21672514
  -OEChem-01202613592D

159163  0     1  0  0  0  0  0999 V2000
   10.3312    3.1550    0.0000 O   0  0  0  0  0  0  0  0  0  0  0  0
   18.9914   -5.8450    0.0000 O   0  0  0  0  0  0  0  0  0  0  0  0
    8.5991    3.1550    0.0000 O   0  0  0  0  0  0  0  0  0  0  0  0
   17.2594   -3.8450    0.0000 O   0  0  0  0  0  0  0  0  0  0  0  0
   19.8574   -4.3450    0.0000 O   0  0  0  0  0  0  0  0  0  0  0  0
   10.3312    6.1550    0.0000 O   0  0  0  0  0  0  0  0  0  0  0  0
   18.9914   -3.8450    0.0000 O   0  0  0  0  0  0  0  0  0  0  0  0
    6.0010    2.6550    0.0000 O   0  0  0  0  0  0  0  0  0  0  0  0
   17.2594   -6.8450    0.0000 O   0  0  0  0  0  0  0  0  0  0  0  0
   10.3312    1.1550    0.0000 O   0  0  0  0  0  0  0  0  0  0  0  0
    8.5991    0.1550    0.0000 O   0  0  0  0  0  0  0  0  0  0  0  0
    6.8671    1.1550    0.0000 O   0  0  0  0  0  0  0  0  0  0  0  0
   15.5273   -5.8450    0.0000 O   0  0  0  0  0  0  0  0  0  0  0  0
    8.5991    4.1550    0.0000 O   0  0  0  0  0  0  0  0  0  0  0  0
   12.0632    4.1550    0.0000 O   0  0  0  0  0  0  0  0  0  0  0  0
    5.1350    4.1550    0.0000 O   0  0  0  0  0  0  0  0  0  0  0  0
   12.0632    6.1550    0.0000 O   0  0  0  0  0  0  0  0  0  0  0  0
   20.7235   -6.8450    0.0000 O   0  0  0  0  0  0  0  0  0  0  0  0
   22.4555   -5.8450    0.0000 O   0  0  0  0  0  0  0  0  0  0  0  0
   22.4555   -3.8450    0.0000 O   0  0  0  0  0  0  0  0  0  0  0  0
   15.5273   -2.8450    0.0000 O   0  0  0  0  0  0  0  0  0  0  0  0
    4.2690    1.6550    0.0000 O   0  0  0  0  0  0  0  0  0  0  0  0
    2.5369    2.6550    0.0000 O   0  0  0  0  0  0  0  0  0  0  0  0
    2.5369    4.6550    0.0000 O   0  0  0  0  0  0  0  0  0  0  0  0
   21.5895   -2.3450    0.0000 O   0  0  0  0  0  0  0  0  0  0  0  0
   18.1254   -5.3450    0.0000 C   0  0  2  0  0  0  0  0  0  0  0  0
   10.3312    4.1550    0.0000 C   0  0  2  0  0  0  0  0  0  0  0  0
   17.2594   -5.8450    0.0000 C   0  0  2  0  0  0  0  0  0  0  0  0
    9.4651    2.6550    0.0000 C   0  0  2  0  0  0  0  0  0  0  0  0
    9.4651    1.6550    0.0000 C   0  0  1  0  0  0  0  0  0  0  0  0
    7.7331    2.6550    0.0000 C   0  0  1  0  0  0  0  0  0  0  0  0
    8.5991    1.1550    0.0000 C   0  0  2  0  0  0  0  0  0  0  0  0
    7.7331    1.6550    0.0000 C   0  0  2  0  0  0  0  0  0  0  0  0
   18.1254   -4.3450    0.0000 C   0  0  1  0  0  0  0  0  0  0  0  0
   16.3933   -5.3450    0.0000 C   0  0  1  0  0  0  0  0  0  0  0  0
    9.4651    4.6550    0.0000 C   0  0  2  0  0  0  0  0  0  0  0  0
   11.1972    4.6550    0.0000 C   0  0  2  0  0  0  0  0  0  0  0  0
   16.3933   -4.3450    0.0000 C   0  0  1  0  0  0  0  0  0  0  0  0
   19.8574   -5.3450    0.0000 C   0  0  2  0  0  0  0  0  0  0  0  0
   20.7235   -5.8450    0.0000 C   0  0  1  0  0  0  0  0  0  0  0  0
    9.4651    5.6550    0.0000 C   0  0  2  0  0  0  0  0  0  0  0  0
   21.5895   -5.3450    0.0000 C   0  0  2  0  0  0  0  0  0  0  0  0
   21.5895   -4.3450    0.0000 C   0  0  1  0  0  0  0  0  0  0  0  0
   11.1972    5.6550    0.0000 C   0  0  1  0  0  0  0  0  0  0  0  0
   20.7235   -3.8450    0.0000 C   0  0  1  0  0  0  0  0  0  0  0  0
    6.8671    3.1550    0.0000 C   0  0  0  0  0  0  0  0  0  0  0  0
   18.9914   -2.8450    0.0000 C   0  0  2  0  0  0  0  0  0  0  0  0
    5.1350    3.1550    0.0000 C   0  0  2  0  0  0  0  0  0  0  0  0
   15.5273   -3.8450    0.0000 C   0  0  0  0  0  0  0  0  0  0  0  0
    4.2690    2.6550    0.0000 C   0  0  1  0  0  0  0  0  0  0  0  0
    3.4030    3.1550    0.0000 C   0  0  1  0  0  0  0  0  0  0  0  0
    3.4030    4.1550    0.0000 C   0  0  2  0  0  0  0  0  0  0  0  0
    8.5991    6.1550    0.0000 C   0  0  0  0  0  0  0  0  0  0  0  0
    4.2690    4.6550    0.0000 C   0  0  2  0  0  0  0  0  0  0  0  0
   20.7235   -2.8450    0.0000 C   0  0  0  0  0  0  0  0  0  0  0  0
   18.9914   -1.8450    0.0000 C   0  0  0  0  0  0  0  0  0  0  0  0
   17.9914   -2.8450    0.0000 C   0  0  0  0  0  0  0  0  0  0  0  0
   19.9914   -2.8450    0.0000 C   0  0  0  0  0  0  0  0  0  0  0  0
   18.1254   -1.3450    0.0000 C   0  0  0  0  0  0  0  0  0  0  0  0
    4.2690    5.6550    0.0000 C   0  0  0  0  0  0  0  0  0  0  0  0
   12.9292    5.6550    0.0000 C   0  0  0  0  0  0  0  0  0  0  0  0
   18.1254   -0.3450    0.0000 C   0  0  0  0  0  0  0  0  0  0  0  0
   13.7953    6.1550    0.0000 C   0  0  0  0  0  0  0  0  0  0  0  0
   20.4914   -1.9790    0.0000 C   0  0  0  0  0  0  0  0  0  0  0  0
   17.2594    0.1550    0.0000 C   0  0  0  0  0  0  0  0  0  0  0  0
   14.6613    5.6550    0.0000 C   0  0  0  0  0  0  0  0  0  0  0  0
   13.7953    7.1550    0.0000 C   0  0  0  0  0  0  0  0  0  0  0  0
   17.2594    1.1550    0.0000 C   0  0  0  0  0  0  0  0  0  0  0  0
   14.6613    4.6550    0.0000 C   0  0  0  0  0  0  0  0  0  0  0  0
   16.3933   -0.3450    0.0000 C   0  0  0  0  0  0  0  0  0  0  0  0
   16.3933    1.6550    0.0000 C   0  0  0  0  0  0  0  0  0  0  0  0
   15.5273    4.1550    0.0000 C   0  0  0  0  0  0  0  0  0  0  0  0
   15.5273    3.1550    0.0000 C   0  0  0  0  0  0  0  0  0  0  0  0
   16.3933    2.6550    0.0000 C   0  0  0  0  0  0  0  0  0  0  0  0
   14.6613    2.6550    0.0000 C   0  0  0  0  0  0  0  0  0  0  0  0
   18.1254   -5.9650    0.0000 H   0  0  0  0  0  0  0  0  0  0  0  0
    9.7942    3.8450    0.0000 H   0  0  0  0  0  0  0  0  0  0  0  0
   16.7224   -6.1550    0.0000 H   0  0  0  0  0  0  0  0  0  0  0  0
   10.0021    2.3450    0.0000 H   0  0  0  0  0  0  0  0  0  0  0  0
    9.4651    1.0350    0.0000 H   0  0  0  0  0  0  0  0  0  0  0  0
    7.7331    3.2750    0.0000 H   0  0  0  0  0  0  0  0  0  0  0  0
    9.1360    0.8450    0.0000 H   0  0  0  0  0  0  0  0  0  0  0  0
    7.7331    1.0350    0.0000 H   0  0  0  0  0  0  0  0  0  0  0  0
   18.1254   -3.7250    0.0000 H   0  0  0  0  0  0  0  0  0  0  0  0
   15.8564   -5.0350    0.0000 H   0  0  0  0  0  0  0  0  0  0  0  0
    9.4651    4.0350    0.0000 H   0  0  0  0  0  0  0  0  0  0  0  0
   11.1972    4.0350    0.0000 H   0  0  0  0  0  0  0  0  0  0  0  0
   16.3933   -3.7250    0.0000 H   0  0  0  0  0  0  0  0  0  0  0  0
   19.3205   -5.0350    0.0000 H   0  0  0  0  0  0  0  0  0  0  0  0
   20.1865   -6.1550    0.0000 H   0  0  0  0  0  0  0  0  0  0  0  0
    9.4651    6.2750    0.0000 H   0  0  0  0  0  0  0  0  0  0  0  0
   21.5895   -5.9650    0.0000 H   0  0  0  0  0  0  0  0  0  0  0  0
   21.5895   -3.7250    0.0000 H   0  0  0  0  0  0  0  0  0  0  0  0
   11.1972    6.2750    0.0000 H   0  0  0  0  0  0  0  0  0  0  0  0
   20.1865   -3.5350    0.0000 H   0  0  0  0  0  0  0  0  0  0  0  0
    7.2656    3.6300    0.0000 H   0  0  0  0  0  0  0  0  0  0  0  0
    6.4685    3.6300    0.0000 H   0  0  0  0  0  0  0  0  0  0  0  0
    5.1350    2.5350    0.0000 H   0  0  0  0  0  0  0  0  0  0  0  0
   14.9167   -3.7373    0.0000 H   0  0  0  0  0  0  0  0  0  0  0  0
   15.3153   -4.4276    0.0000 H   0  0  0  0  0  0  0  0  0  0  0  0
    3.7320    2.3450    0.0000 H   0  0  0  0  0  0  0  0  0  0  0  0
    2.8660    3.4650    0.0000 H   0  0  0  0  0  0  0  0  0  0  0  0
    3.4030    4.7750    0.0000 H   0  0  0  0  0  0  0  0  0  0  0  0
    8.9091    6.6919    0.0000 H   0  0  0  0  0  0  0  0  0  0  0  0
    8.0622    6.4650    0.0000 H   0  0  0  0  0  0  0  0  0  0  0  0
    8.2891    5.6181    0.0000 H   0  0  0  0  0  0  0  0  0  0  0  0
    4.8059    4.9650    0.0000 H   0  0  0  0  0  0  0  0  0  0  0  0
   20.5114   -2.2624    0.0000 H   0  0  0  0  0  0  0  0  0  0  0  0
   20.1129   -2.9527    0.0000 H   0  0  0  0  0  0  0  0  0  0  0  0
   16.7224   -7.1550    0.0000 H   0  0  0  0  0  0  0  0  0  0  0  0
   19.6020   -1.9527    0.0000 H   0  0  0  0  0  0  0  0  0  0  0  0
   19.2035   -1.2624    0.0000 H   0  0  0  0  0  0  0  0  0  0  0  0
   10.3312    0.5350    0.0000 H   0  0  0  0  0  0  0  0  0  0  0  0
    8.0622   -0.1550    0.0000 H   0  0  0  0  0  0  0  0  0  0  0  0
    6.8671    0.5350    0.0000 H   0  0  0  0  0  0  0  0  0  0  0  0
   14.9904   -5.5350    0.0000 H   0  0  0  0  0  0  0  0  0  0  0  0
    8.0622    4.4650    0.0000 H   0  0  0  0  0  0  0  0  0  0  0  0
   12.0632    3.5350    0.0000 H   0  0  0  0  0  0  0  0  0  0  0  0
   21.2604   -7.1550    0.0000 H   0  0  0  0  0  0  0  0  0  0  0  0
   17.9914   -2.2250    0.0000 H   0  0  0  0  0  0  0  0  0  0  0  0
   17.3714   -2.8450    0.0000 H   0  0  0  0  0  0  0  0  0  0  0  0
   17.9914   -3.4650    0.0000 H   0  0  0  0  0  0  0  0  0  0  0  0
   22.9925   -5.5350    0.0000 H   0  0  0  0  0  0  0  0  0  0  0  0
   22.9925   -4.1550    0.0000 H   0  0  0  0  0  0  0  0  0  0  0  0
   20.3014   -3.3819    0.0000 H   0  0  0  0  0  0  0  0  0  0  0  0
   17.5148   -1.2373    0.0000 H   0  0  0  0  0  0  0  0  0  0  0  0
   17.9133   -1.9276    0.0000 H   0  0  0  0  0  0  0  0  0  0  0  0
    4.8890    5.6550    0.0000 H   0  0  0  0  0  0  0  0  0  0  0  0
    4.2690    6.2750    0.0000 H   0  0  0  0  0  0  0  0  0  0  0  0
    3.6490    5.6550    0.0000 H   0  0  0  0  0  0  0  0  0  0  0  0
   12.5307    5.1800    0.0000 H   0  0  0  0  0  0  0  0  0  0  0  0
   13.3278    5.1800    0.0000 H   0  0  0  0  0  0  0  0  0  0  0  0
   14.9904   -2.5350    0.0000 H   0  0  0  0  0  0  0  0  0  0  0  0
    3.7320    1.3450    0.0000 H   0  0  0  0  0  0  0  0  0  0  0  0
    2.0000    2.9650    0.0000 H   0  0  0  0  0  0  0  0  0  0  0  0
    2.5369    5.2750    0.0000 H   0  0  0  0  0  0  0  0  0  0  0  0
   21.5895   -1.7250    0.0000 H   0  0  0  0  0  0  0  0  0  0  0  0
   18.6623   -0.0350    0.0000 H   0  0  0  0  0  0  0  0  0  0  0  0
   21.1114   -1.9790    0.0000 H   0  0  0  0  0  0  0  0  0  0  0  0
   20.1814   -1.4420    0.0000 H   0  0  0  0  0  0  0  0  0  0  0  0
   15.1982    5.9650    0.0000 H   0  0  0  0  0  0  0  0  0  0  0  0
   14.4153    7.1550    0.0000 H   0  0  0  0  0  0  0  0  0  0  0  0
   13.7953    7.7750    0.0000 H   0  0  0  0  0  0  0  0  0  0  0  0
   13.1753    7.1550    0.0000 H   0  0  0  0  0  0  0  0  0  0  0  0
   17.8699    1.0473    0.0000 H   0  0  0  0  0  0  0  0  0  0  0  0
   17.4714    1.7376    0.0000 H   0  0  0  0  0  0  0  0  0  0  0  0
   14.0507    4.7627    0.0000 H   0  0  0  0  0  0  0  0  0  0  0  0
   14.4492    4.0724    0.0000 H   0  0  0  0  0  0  0  0  0  0  0  0
   16.0833    0.1919    0.0000 H   0  0  0  0  0  0  0  0  0  0  0  0
   15.8564   -0.6550    0.0000 H   0  0  0  0  0  0  0  0  0  0  0  0
   16.7033   -0.8819    0.0000 H   0  0  0  0  0  0  0  0  0  0  0  0
   15.7828    1.7627    0.0000 H   0  0  0  0  0  0  0  0  0  0  0  0
   16.1813    1.0724    0.0000 H   0  0  0  0  0  0  0  0  0  0  0  0
   16.1379    4.0473    0.0000 H   0  0  0  0  0  0  0  0  0  0  0  0
   15.7394    4.7376    0.0000 H   0  0  0  0  0  0  0  0  0  0  0  0
   16.9303    2.9650    0.0000 H   0  0  0  0  0  0  0  0  0  0  0  0
   14.3513    3.1919    0.0000 H   0  0  0  0  0  0  0  0  0  0  0  0
   14.1244    2.3450    0.0000 H   0  0  0  0  0  0  0  0  0  0  0  0
   14.9713    2.1181    0.0000 H   0  0  0  0  0  0  0  0  0  0  0  0
 27  1  1  6  0  0  0
 29  1  1  1  0  0  0
 26  2  1  6  0  0  0
 39  2  1  6  0  0  0
  3 29  1  0  0  0  0
  3 31  1  0  0  0  0
  4 34  1  0  0  0  0
  4 38  1  0  0  0  0
  5 39  1  0  0  0  0
  5 45  1  0  0  0  0
  6 41  1  0  0  0  0
  6 44  1  0  0  0  0
 34  7  1  1  0  0  0
 47  7  1  1  0  0  0
  8 46  1  0  0  0  0
 48  8  1  1  0  0  0
 28  9  1  1  0  0  0
  9110  1  0  0  0  0
 30 10  1  6  0  0  0
 10113  1  0  0  0  0
 32 11  1  1  0  0  0
 11114  1  0  0  0  0
 33 12  1  6  0  0  0
 12115  1  0  0  0  0
 35 13  1  6  0  0  0
 13116  1  0  0  0  0
 36 14  1  1  0  0  0
 14117  1  0  0  0  0
 37 15  1  6  0  0  0
 15118  1  0  0  0  0
 16 48  1  0  0  0  0
 16 54  1  0  0  0  0
 44 17  1  1  0  0  0
 17 61  1  0  0  0  0
 40 18  1  1  0  0  0
 18119  1  0  0  0  0
 42 19  1  6  0  0  0
 19123  1  0  0  0  0
 43 20  1  1  0  0  0
 20124  1  0  0  0  0
 21 49  1  0  0  0  0
 21133  1  0  0  0  0
 50 22  1  6  0  0  0
 22134  1  0  0  0  0
 51 23  1  6  0  0  0
 23135  1  0  0  0  0
 52 24  1  1  0  0  0
 24136  1  0  0  0  0
 25 55  1  0  0  0  0
 25137  1  0  0  0  0
 26 28  1  0  0  0  0
 26 34  1  0  0  0  0
 26 76  1  0  0  0  0
 27 36  1  0  0  0  0
 27 37  1  0  0  0  0
 27 77  1  0  0  0  0
 28 35  1  0  0  0  0
 28 78  1  0  0  0  0
 29 30  1  0  0  0  0
 29 79  1  0  0  0  0
 30 32  1  0  0  0  0
 30 80  1  0  0  0  0
 31 33  1  0  0  0  0
 31 46  1  1  0  0  0
 31 81  1  0  0  0  0
 32 33  1  0  0  0  0
 32 82  1  0  0  0  0
 33 83  1  0  0  0  0
 34 84  1  0  0  0  0
 35 38  1  0  0  0  0
 35 85  1  0  0  0  0
 36 41  1  0  0  0  0
 36 86  1  0  0  0  0
 37 44  1  0  0  0  0
 37 87  1  0  0  0  0
 38 49  1  1  0  0  0
 38 88  1  0  0  0  0
 39 40  1  0  0  0  0
 39 89  1  0  0  0  0
 40 42  1  0  0  0  0
 40 90  1  0  0  0  0
 41 53  1  6  0  0  0
 41 91  1  0  0  0  0
 42 43  1  0  0  0  0
 42 92  1  0  0  0  0
 43 45  1  0  0  0  0
 43 93  1  0  0  0  0
 44 94  1  0  0  0  0
 45 55  1  6  0  0  0
 45 95  1  0  0  0  0
 46 96  1  0  0  0  0
 46 97  1  0  0  0  0
 47 56  1  0  0  0  0
 47 57  1  0  0  0  0
 47 58  1  0  0  0  0
 48 50  1  0  0  0  0
 48 98  1  0  0  0  0
 49 99  1  0  0  0  0
 49100  1  0  0  0  0
 50 51  1  0  0  0  0
 50101  1  0  0  0  0
 51 52  1  0  0  0  0
 51102  1  0  0  0  0
 52 54  1  0  0  0  0
 52103  1  0  0  0  0
 53104  1  0  0  0  0
 53105  1  0  0  0  0
 53106  1  0  0  0  0
 54 60  1  6  0  0  0
 54107  1  0  0  0  0
 55108  1  0  0  0  0
 55109  1  0  0  0  0
 56 59  1  0  0  0  0
 56111  1  0  0  0  0
 56112  1  0  0  0  0
 57120  1  0  0  0  0
 57121  1  0  0  0  0
 57122  1  0  0  0  0
 58 64  2  0  0  0  0
 58125  1  0  0  0  0
 59 62  1  0  0  0  0
 59126  1  0  0  0  0
 59127  1  0  0  0  0
 60128  1  0  0  0  0
 60129  1  0  0  0  0
 60130  1  0  0  0  0
 61 63  1  0  0  0  0
 61131  1  0  0  0  0
 61132  1  0  0  0  0
 62 65  2  0  0  0  0
 62138  1  0  0  0  0
 63 66  2  0  0  0  0
 63 67  1  0  0  0  0
 64139  1  0  0  0  0
 64140  1  0  0  0  0
 65 68  1  0  0  0  0
 65 70  1  0  0  0  0
 66 69  1  0  0  0  0
 66141  1  0  0  0  0
 67142  1  0  0  0  0
 67143  1  0  0  0  0
 67144  1  0  0  0  0
 68 71  1  0  0  0  0
 68145  1  0  0  0  0
 68146  1  0  0  0  0
 69 72  1  0  0  0  0
 69147  1  0  0  0  0
 69148  1  0  0  0  0
 70149  1  0  0  0  0
 70150  1  0  0  0  0
 70151  1  0  0  0  0
 71 74  1  0  0  0  0
 71152  1  0  0  0  0
 71153  1  0  0  0  0
 72 73  1  0  0  0  0
 72154  1  0  0  0  0
 72155  1  0  0  0  0
 73 74  2  0  0  0  0
 73 75  1  0  0  0  0
 74156  1  0  0  0  0
 75157  1  0  0  0  0
 75158  1  0  0  0  0
 75159  1  0  0  0  0
M  END
> <PUBCHEM_COMPOUND_CID>
21672514

> <PUBCHEM_COMPOUND_CANONICALIZED>
1

> <PUBCHEM_CACTVS_COMPLEXITY>
1840

> <PUBCHEM_CACTVS_HBOND_ACCEPTOR>
25

> <PUBCHEM_CACTVS_HBOND_DONOR>
15

> <PUBCHEM_CACTVS_ROTATABLE_BOND>
24

> <PUBCHEM_CACTVS_SUBSKEYS>
AAADcfB8PgAAAAAAAAAAAAAAAAAAAAAAAAAkSJEiQAAAAAAAAAAAGgAACAAADFSwgAMCCAAABgCAAiBCAAAAAAAgAAAICAAAAAgRFAIAIQAiUAAFgAAPIAPAYAwMAAAAAAAAAAAAAAAAAAAAAAAAAAAAAA==

> <PUBCHEM_IUPAC_OPENEYE_NAME>
(2R,3R,4R,5R,6S)-2-[[(2R,3S,4S,5R,6S)-6-[(2R,3R,4R,5S,6S)-2-[(2Z,6E,10E,14S)-14-[(2S,3R,4S,5S,6R)-4,5-dihydroxy-6-(hydroxymethyl)-3-[(2S,3R,4S,5S,6R)-3,4,5-trihydroxy-6-(hydroxymethyl)tetrahydropyran-2-yl]oxy-tetrahydropyran-2-yl]oxy-2,6,10,14-tetramethyl-hexadeca-2,6,10,15-tetraenoxy]-3,5-dihydroxy-6-methyl-tetrahydropyran-4-yl]oxy-3,4,5-trihydroxy-tetrahydropyran-2-yl]methoxy]-6-methyl-tetrahydropyran-3,4,5-triol

> <PUBCHEM_IUPAC_CAS_NAME>
(2R,3R,4R,5R,6S)-2-[[(2R,3S,4S,5R,6S)-6-[[(2R,3R,4R,5S,6S)-2-[(2Z,6E,10E,14S)-14-[[(2S,3R,4S,5S,6R)-4,5-dihydroxy-6-(hydroxymethyl)-3-[[(2S,3R,4S,5S,6R)-3,4,5-trihydroxy-6-(hydroxymethyl)-2-oxanyl]oxy]-2-oxanyl]oxy]-2,6,10,14-tetramethylhexadeca-2,6,10,15-tetraenoxy]-3,5-dihydroxy-6-methyl-4-oxanyl]oxy]-3,4,5-trihydroxy-2-oxanyl]methoxy]-6-methyloxane-3,4,5-triol

> <PUBCHEM_IUPAC_NAME_MARKUP>
(2<I>R</I>,3<I>R</I>,4<I>R</I>,5<I>R</I>,6<I>S</I>)-2-[[(2<I>R</I>,3<I>S</I>,4<I>S</I>,5<I>R</I>,6<I>S</I>)-6-[(2<I>R</I>,3<I>R</I>,4<I>R</I>,5<I>S</I>,6<I>S</I>)-2-[(2<I>Z</I>,6<I>E</I>,10<I>E</I>,14<I>S</I>)-14-[(2<I>S</I>,3<I>R</I>,4<I>S</I>,5<I>S</I>,6<I>R</I>)-4,5-dihydroxy-6-(hydroxymethyl)-3-[(2<I>S</I>,3<I>R</I>,4<I>S</I>,5<I>S</I>,6<I>R</I>)-3,4,5-trihydroxy-6-(hydroxymethyl)oxan-2-yl]oxyoxan-2-yl]oxy-2,6,10,14-tetramethylhexadeca-2,6,10,15-tetraenoxy]-3,5-dihydroxy-6-methyloxan-4-yl]oxy-3,4,5-trihydroxyoxan-2-yl]methoxy]-6-methyloxane-3,4,5-triol

> <PUBCHEM_IUPAC_NAME>
(2R,3R,4R,5R,6S)-2-[[(2R,3S,4S,5R,6S)-6-[(2R,3R,4R,5S,6S)-2-[(2Z,6E,10E,14S)-14-[(2S,3R,4S,5S,6R)-4,5-dihydroxy-6-(hydroxymethyl)-3-[(2S,3R,4S,5S,6R)-3,4,5-trihydroxy-6-(hydroxymethyl)oxan-2-yl]oxyoxan-2-yl]oxy-2,6,10,14-tetramethylhexadeca-2,6,10,15-tetraenoxy]-3,5-dihydroxy-6-methyloxan-4-yl]oxy-3,4,5-trihydroxyoxan-2-yl]methoxy]-6-methyloxane-3,4,5-triol

> <PUBCHEM_IUPAC_SYSTEMATIC_NAME>
(2R,3R,4R,5R,6S)-2-[[(2R,3S,4S,5R,6S)-6-[(2R,3R,4R,5S,6S)-2-[(2Z,6E,10E,14S)-14-[(2S,3R,4S,5S,6R)-6-(hydroxymethyl)-3-[(2S,3R,4S,5S,6R)-6-(hydroxymethyl)-3,4,5-tris(oxidanyl)oxan-2-yl]oxy-4,5-bis(oxidanyl)oxan-2-yl]oxy-2,6,10,14-tetramethyl-hexadeca-2,6,10,15-tetraenoxy]-6-methyl-3,5-bis(oxidanyl)oxan-4-yl]oxy-3,4,5-tris(oxidanyl)oxan-2-yl]methoxy]-6-methyl-oxane-3,4,5-triol

> <PUBCHEM_IUPAC_TRADITIONAL_NAME>
(2R,3R,4R,5R,6S)-2-[[(2R,3S,4S,5R,6S)-6-[(2R,3R,4R,5S,6S)-2-[(2Z,6E,10E,14S)-14-[(2S,3R,4S,5S,6R)-4,5-dihydroxy-6-methylol-3-[(2S,3R,4S,5S,6R)-3,4,5-trihydroxy-6-methylol-tetrahydropyran-2-yl]oxy-tetrahydropyran-2-yl]oxy-2,6,10,14-tetramethyl-hexadeca-2,6,10,15-tetraenoxy]-3,5-dihydroxy-6-methyl-tetrahydropyran-4-yl]oxy-3,4,5-trihydroxy-tetrahydropyran-2-yl]methoxy]-6-methyl-tetrahydropyran-3,4,5-triol

> <PUBCHEM_IUPAC_INCHI>
InChI=1S/C50H84O25/c1-8-50(7,75-49-44(38(61)33(56)28(19-52)71-49)74-47-40(63)36(59)32(55)27(18-51)70-47)17-11-16-23(3)13-9-12-22(2)14-10-15-24(4)20-66-46-42(65)43(31(54)26(6)69-46)73-48-41(64)37(60)34(57)29(72-48)21-67-45-39(62)35(58)30(53)25(5)68-45/h8,12,15-16,25-49,51-65H,1,9-11,13-14,17-21H2,2-7H3/b22-12+,23-16+,24-15-/t25-,26-,27+,28+,29+,30-,31-,32+,33+,34+,35+,36-,37-,38-,39+,40+,41+,42+,43+,44+,45+,46+,47-,48-,49-,50+/m0/s1

> <PUBCHEM_IUPAC_INCHIKEY>
NFBYZSYLZUMCFV-VZDZUNMMSA-N

> <PUBCHEM_XLOGP3_AA>
-2.3

> <PUBCHEM_EXACT_MASS>
1084.53016816

> <PUBCHEM_MOLECULAR_FORMULA>
C50H84O25

> <PUBCHEM_MOLECULAR_WEIGHT>
1085.2

> <PUBCHEM_SMILES>
C[C@H]1[C@@H]([C@H]([C@H]([C@@H](O1)OC[C@@H]2[C@H]([C@@H]([C@H]([C@@H](O2)O[C@@H]3[C@H]([C@@H](O[C@H]([C@@H]3O)OC/C(=C\CC/C(=C/CC/C(=C/CC[C@@](C)(C=C)O[C@H]4[C@@H]([C@H]([C@@H]([C@H](O4)CO)O)O)O[C@H]5[C@@H]([C@H]([C@@H]([C@H](O5)CO)O)O)O)/C)/C)/C)C)O)O)O)O)O)O)O

> <PUBCHEM_CONNECTIVITY_SMILES>
CC1C(C(C(C(O1)OCC2C(C(C(C(O2)OC3C(C(OC(C3O)OCC(=CCCC(=CCCC(=CCCC(C)(C=C)OC4C(C(C(C(O4)CO)O)O)OC5C(C(C(C(O5)CO)O)O)O)C)C)C)C)O)O)O)O)O)O)O

> <PUBCHEM_CACTVS_TPSA>
396

> <PUBCHEM_MONOISOTOPIC_WEIGHT>
1084.53016816

> <PUBCHEM_TOTAL_CHARGE>
0

> <PUBCHEM_HEAVY_ATOM_COUNT>
75

> <PUBCHEM_ATOM_DEF_STEREO_COUNT>
26

> <PUBCHEM_ATOM_UDEF_STEREO_COUNT>
0

> <PUBCHEM_BOND_DEF_STEREO_COUNT>
3

> <PUBCHEM_BOND_UDEF_STEREO_COUNT>
0

> <PUBCHEM_ISOTOPIC_ATOM_COUNT>
0

> <PUBCHEM_COMPONENT_COUNT>
1

> <PUBCHEM_CACTVS_TAUTO_COUNT>
-1

> <PUBCHEM_COORDINATE_TYPE>
1
5
255

> <PUBCHEM_BONDANNOTATIONS>
27  1  6
29  1  5
30  10  6
32  11  5
33  12  6
35  13  6
36  14  5
37  15  6
44  17  5
40  18  5
42  19  6
26  2  6
39  2  6
43  20  5
50  22  6
51  23  6
52  24  5
31  46  5
38  49  5
41  53  6
45  55  6
54  60  6
34  7  5
47  7  5
48  8  5
28  9  5

$$$$
