139583204
  -OEChem-01202622412D

 53 55  0     1  0  0  0  0  0999 V2000
    2.5381   -1.9612    0.0000 O   0  0  0  0  0  0  0  0  0  0  0  0
    5.2022   -0.4370    0.0000 C   0  0  1  0  0  0  0  0  0  0  0  0
    5.2022   -1.4370    0.0000 C   0  0  2  0  0  0  0  0  0  0  0  0
    6.0683    0.0630    0.0000 C   0  0  3  0  0  0  0  0  0  0  0  0
    4.3083   -1.9717    0.0000 C   0  0  0  0  0  0  0  0  0  0  0  0
    4.3083    0.0976    0.0000 C   0  0  0  0  0  0  0  0  0  0  0  0
    3.4022   -1.4579    0.0000 C   0  0  2  0  0  0  0  0  0  0  0  0
    6.0683   -1.9370    0.0000 C   0  0  0  0  0  0  0  0  0  0  0  0
    6.9343   -0.4370    0.0000 C   0  0  0  0  0  0  0  0  0  0  0  0
    3.4022   -0.4162    0.0000 C   0  0  0  0  0  0  0  0  0  0  0  0
    6.0522    1.1045    0.0000 C   0  0  0  0  0  0  0  0  0  0  0  0
    5.2022    0.5630    0.0000 C   0  0  0  0  0  0  0  0  0  0  0  0
    7.8523    1.1114    0.0000 C   0  0  2  0  0  0  0  0  0  0  0  0
    7.8443    0.0698    0.0000 C   0  0  0  0  0  0  0  0  0  0  0  0
    6.9343   -1.4370    0.0000 C   0  0  0  0  0  0  0  0  0  0  0  0
    6.9502    1.6322    0.0000 C   0  0  0  0  0  0  0  0  0  0  0  0
    3.8183   -2.8435    0.0000 C   0  0  0  0  0  0  0  0  0  0  0  0
    4.8183   -2.8319    0.0000 C   0  0  0  0  0  0  0  0  0  0  0  0
    8.8523    1.1076    0.0000 C   0  0  0  0  0  0  0  0  0  0  0  0
    8.3556    1.9755    0.0000 C   0  0  0  0  0  0  0  0  0  0  0  0
    7.8590    2.8435    0.0000 C   0  0  0  0  0  0  0  0  0  0  0  0
    5.2088   -2.2870    0.0000 H   0  0  0  0  0  0  0  0  0  0  0  0
    6.6028    0.3771    0.0000 H   0  0  0  0  0  0  0  0  0  0  0  0
    4.7129    0.5674    0.0000 H   0  0  0  0  0  0  0  0  0  0  0  0
    3.9147    0.5766    0.0000 H   0  0  0  0  0  0  0  0  0  0  0  0
    2.8647   -1.1489    0.0000 H   0  0  0  0  0  0  0  0  0  0  0  0
    5.6697   -2.4120    0.0000 H   0  0  0  0  0  0  0  0  0  0  0  0
    6.4668   -2.4120    0.0000 H   0  0  0  0  0  0  0  0  0  0  0  0
    3.1932    0.1675    0.0000 H   0  0  0  0  0  0  0  0  0  0  0  0
    2.7914   -0.5223    0.0000 H   0  0  0  0  0  0  0  0  0  0  0  0
    5.8342    1.6849    0.0000 H   0  0  0  0  0  0  0  0  0  0  0  0
    5.4431    0.9890    0.0000 H   0  0  0  0  0  0  0  0  0  0  0  0
    5.8222    0.5630    0.0000 H   0  0  0  0  0  0  0  0  0  0  0  0
    5.2022    1.1830    0.0000 H   0  0  0  0  0  0  0  0  0  0  0  0
    4.5822    0.5630    0.0000 H   0  0  0  0  0  0  0  0  0  0  0  0
    8.0488   -0.5155    0.0000 H   0  0  0  0  0  0  0  0  0  0  0  0
    8.4559    0.1712    0.0000 H   0  0  0  0  0  0  0  0  0  0  0  0
    7.4712   -1.7470    0.0000 H   0  0  0  0  0  0  0  0  0  0  0  0
    7.3475    2.1082    0.0000 H   0  0  0  0  0  0  0  0  0  0  0  0
    6.5493    2.1051    0.0000 H   0  0  0  0  0  0  0  0  0  0  0  0
    3.2779   -2.5397    0.0000 H   0  0  0  0  0  0  0  0  0  0  0  0
    3.5146   -3.3839    0.0000 H   0  0  0  0  0  0  0  0  0  0  0  0
    4.3588   -3.1472    0.0000 H   0  0  0  0  0  0  0  0  0  0  0  0
    4.2850   -3.1481    0.0000 H   0  0  0  0  0  0  0  0  0  0  0  0
    5.1345   -3.3652    0.0000 H   0  0  0  0  0  0  0  0  0  0  0  0
    5.3516   -2.5157    0.0000 H   0  0  0  0  0  0  0  0  0  0  0  0
    8.8499    0.4876    0.0000 H   0  0  0  0  0  0  0  0  0  0  0  0
    9.4723    1.1052    0.0000 H   0  0  0  0  0  0  0  0  0  0  0  0
    8.8547    1.7276    0.0000 H   0  0  0  0  0  0  0  0  0  0  0  0
    2.0000   -1.6533    0.0000 H   0  0  0  0  0  0  0  0  0  0  0  0
    8.9756    1.9731    0.0000 H   0  0  0  0  0  0  0  0  0  0  0  0
    8.1711    3.3792    0.0000 H   0  0  0  0  0  0  0  0  0  0  0  0
    7.2390    2.8458    0.0000 H   0  0  0  0  0  0  0  0  0  0  0  0
  7  1  1  1  0  0  0
  1 50  1  0  0  0  0
  2  3  1  0  0  0  0
  2  4  1  0  0  0  0
  2  6  1  0  0  0  0
  2 12  1  1  0  0  0
  3  5  1  0  0  0  0
  3  8  1  0  0  0  0
  3 22  1  6  0  0  0
  4  9  1  0  0  0  0
  4 11  1  0  0  0  0
  4 23  1  0  0  0  0
  5  7  1  0  0  0  0
  5 17  1  0  0  0  0
  5 18  1  0  0  0  0
  6 10  1  0  0  0  0
  6 24  1  0  0  0  0
  6 25  1  0  0  0  0
  7 10  1  0  0  0  0
  7 26  1  0  0  0  0
  8 15  1  0  0  0  0
  8 27  1  0  0  0  0
  8 28  1  0  0  0  0
  9 14  1  0  0  0  0
  9 15  2  0  0  0  0
 10 29  1  0  0  0  0
 10 30  1  0  0  0  0
 11 16  1  0  0  0  0
 11 31  1  0  0  0  0
 11 32  1  0  0  0  0
 12 33  1  0  0  0  0
 12 34  1  0  0  0  0
 12 35  1  0  0  0  0
 13 14  1  0  0  0  0
 13 16  1  0  0  0  0
 13 19  1  6  0  0  0
 13 20  1  0  0  0  0
 14 36  1  0  0  0  0
 14 37  1  0  0  0  0
 15 38  1  0  0  0  0
 16 39  1  0  0  0  0
 16 40  1  0  0  0  0
 17 41  1  0  0  0  0
 17 42  1  0  0  0  0
 17 43  1  0  0  0  0
 18 44  1  0  0  0  0
 18 45  1  0  0  0  0
 18 46  1  0  0  0  0
 19 47  1  0  0  0  0
 19 48  1  0  0  0  0
 19 49  1  0  0  0  0
 20 21  2  0  0  0  0
 20 51  1  0  0  0  0
 21 52  1  0  0  0  0
 21 53  1  0  0  0  0
M  END
> <PUBCHEM_COMPOUND_CID>
139583204

> <PUBCHEM_COMPOUND_CANONICALIZED>
1

> <PUBCHEM_CACTVS_COMPLEXITY>
474

> <PUBCHEM_CACTVS_HBOND_ACCEPTOR>
1

> <PUBCHEM_CACTVS_HBOND_DONOR>
1

> <PUBCHEM_CACTVS_ROTATABLE_BOND>
1

> <PUBCHEM_CACTVS_SUBSKEYS>
AAADcfB4IAAAAAAAAAAAAAAAAAAAAAAAAAAwYIAAAAAAAACAAAAAGgAACAAADxSggAICAAAAAgCAAiBCAAAAAAAgAAAICAAAAAgAEAIAAQAAQAAEgAAIAAOAwPAPgAAAAAAAAADAAAYAADAAAAAAAAAAAA==

> <PUBCHEM_IUPAC_OPENEYE_NAME>
(2S,4aR,7R,10aR)-1,1,4a,7-tetramethyl-7-vinyl-3,4,4b,5,6,8,10,10a-octahydro-2H-phenanthren-2-ol

> <PUBCHEM_IUPAC_CAS_NAME>
(2S,4aR,7R,10aR)-7-ethenyl-1,1,4a,7-tetramethyl-3,4,4b,5,6,8,10,10a-octahydro-2H-phenanthren-2-ol

> <PUBCHEM_IUPAC_NAME_MARKUP>
(2<I>S</I>,4<I>a</I><I>R</I>,7<I>R</I>,10<I>a</I><I>R</I>)-7-ethenyl-1,1,4<I>a</I>,7-tetramethyl-3,4,4<I>b</I>,5,6,8,10,10<I>a</I>-octahydro-2<I>H</I>-phenanthren-2-ol

> <PUBCHEM_IUPAC_NAME>
(2S,4aR,7R,10aR)-7-ethenyl-1,1,4a,7-tetramethyl-3,4,4b,5,6,8,10,10a-octahydro-2H-phenanthren-2-ol

> <PUBCHEM_IUPAC_SYSTEMATIC_NAME>
(2S,4aR,7R,10aR)-7-ethenyl-1,1,4a,7-tetramethyl-3,4,4b,5,6,8,10,10a-octahydro-2H-phenanthren-2-ol

> <PUBCHEM_IUPAC_TRADITIONAL_NAME>
(2S,4aR,7R,10aR)-1,1,4a,7-tetramethyl-7-vinyl-3,4,4b,5,6,8,10,10a-octahydro-2H-phenanthren-2-ol

> <PUBCHEM_IUPAC_INCHI>
InChI=1S/C20H32O/c1-6-19(4)11-9-15-14(13-19)7-8-16-18(2,3)17(21)10-12-20(15,16)5/h6-7,15-17,21H,1,8-13H2,2-5H3/t15?,16-,17-,19+,20+/m0/s1

> <PUBCHEM_IUPAC_INCHIKEY>
BLRQCWSOICYRPH-XXLBNXLCSA-N

> <PUBCHEM_XLOGP3_AA>
5.3

> <PUBCHEM_EXACT_MASS>
288.245315640

> <PUBCHEM_MOLECULAR_FORMULA>
C20H32O

> <PUBCHEM_MOLECULAR_WEIGHT>
288.5

> <PUBCHEM_SMILES>
C[C@]1(CCC2C(=CC[C@@H]3[C@@]2(CC[C@@H](C3(C)C)O)C)C1)C=C

> <PUBCHEM_CONNECTIVITY_SMILES>
CC1(C(CCC2(C1CC=C3C2CCC(C3)(C)C=C)C)O)C

> <PUBCHEM_CACTVS_TPSA>
20.2

> <PUBCHEM_MONOISOTOPIC_WEIGHT>
288.245315640

> <PUBCHEM_TOTAL_CHARGE>
0

> <PUBCHEM_HEAVY_ATOM_COUNT>
21

> <PUBCHEM_ATOM_DEF_STEREO_COUNT>
4

> <PUBCHEM_ATOM_UDEF_STEREO_COUNT>
1

> <PUBCHEM_BOND_DEF_STEREO_COUNT>
0

> <PUBCHEM_BOND_UDEF_STEREO_COUNT>
0

> <PUBCHEM_ISOTOPIC_ATOM_COUNT>
0

> <PUBCHEM_COMPONENT_COUNT>
1

> <PUBCHEM_CACTVS_TAUTO_COUNT>
-1

> <PUBCHEM_COORDINATE_TYPE>
1
5
255

> <PUBCHEM_BONDANNOTATIONS>
7  1  5
13  19  6
2  12  5
3  22  6
4  11  3

$$$$
