6452077
  -OEChem-01202622342D

 42 43  0     1  0  0  0  0  0999 V2000
    4.5981   -1.5950    0.0000 O   0  0  0  0  0  0  0  0  0  0  0  0
    5.4641    0.9050    0.0000 C   0  0  1  0  0  0  0  0  0  0  0  0
    5.4641   -0.0950    0.0000 C   0  0  1  0  0  0  0  0  0  0  0  0
    4.5981   -0.5950    0.0000 C   0  0  2  0  0  0  0  0  0  0  0  0
    3.7321   -0.0950    0.0000 C   0  0  1  0  0  0  0  0  0  0  0  0
    4.5981    1.4050    0.0000 C   0  0  0  0  0  0  0  0  0  0  0  0
    3.7321    0.9050    0.0000 C   0  0  0  0  0  0  0  0  0  0  0  0
    6.3580    1.4397    0.0000 C   0  0  0  0  0  0  0  0  0  0  0  0
    6.3580   -0.6297    0.0000 C   0  0  0  0  0  0  0  0  0  0  0  0
    7.2641    0.9258    0.0000 C   0  0  0  0  0  0  0  0  0  0  0  0
    5.4641    1.9050    0.0000 C   0  0  0  0  0  0  0  0  0  0  0  0
    2.8660   -0.5950    0.0000 C   0  0  0  0  0  0  0  0  0  0  0  0
    7.2641   -0.1158    0.0000 C   0  0  0  0  0  0  0  0  0  0  0  0
    2.0000   -0.0950    0.0000 C   0  0  0  0  0  0  0  0  0  0  0  0
    2.8660   -1.5950    0.0000 C   0  0  0  0  0  0  0  0  0  0  0  0
    6.3465   -1.6296    0.0000 C   0  0  0  0  0  0  0  0  0  0  0  0
    6.2035    0.3243    0.0000 H   0  0  0  0  0  0  0  0  0  0  0  0
    5.1350   -0.9050    0.0000 H   0  0  0  0  0  0  0  0  0  0  0  0
    3.7321   -0.7150    0.0000 H   0  0  0  0  0  0  0  0  0  0  0  0
    4.9966    1.8800    0.0000 H   0  0  0  0  0  0  0  0  0  0  0  0
    4.1996    1.8800    0.0000 H   0  0  0  0  0  0  0  0  0  0  0  0
    3.5200    1.4876    0.0000 H   0  0  0  0  0  0  0  0  0  0  0  0
    3.1215    0.7973    0.0000 H   0  0  0  0  0  0  0  0  0  0  0  0
    6.7517    1.9187    0.0000 H   0  0  0  0  0  0  0  0  0  0  0  0
    5.9535    1.9095    0.0000 H   0  0  0  0  0  0  0  0  0  0  0  0
    7.8750    0.8197    0.0000 H   0  0  0  0  0  0  0  0  0  0  0  0
    7.4732    1.5095    0.0000 H   0  0  0  0  0  0  0  0  0  0  0  0
    6.0841    1.9050    0.0000 H   0  0  0  0  0  0  0  0  0  0  0  0
    5.4641    2.5250    0.0000 H   0  0  0  0  0  0  0  0  0  0  0  0
    4.8441    1.9050    0.0000 H   0  0  0  0  0  0  0  0  0  0  0  0
    2.8660    0.0250    0.0000 H   0  0  0  0  0  0  0  0  0  0  0  0
    7.4732   -0.6995    0.0000 H   0  0  0  0  0  0  0  0  0  0  0  0
    7.8750   -0.0097    0.0000 H   0  0  0  0  0  0  0  0  0  0  0  0
    4.0611   -1.9050    0.0000 H   0  0  0  0  0  0  0  0  0  0  0  0
    2.3100    0.4419    0.0000 H   0  0  0  0  0  0  0  0  0  0  0  0
    1.4631    0.2150    0.0000 H   0  0  0  0  0  0  0  0  0  0  0  0
    1.6900   -0.6319    0.0000 H   0  0  0  0  0  0  0  0  0  0  0  0
    2.2460   -1.5950    0.0000 H   0  0  0  0  0  0  0  0  0  0  0  0
    2.8660   -2.2150    0.0000 H   0  0  0  0  0  0  0  0  0  0  0  0
    3.4860   -1.5950    0.0000 H   0  0  0  0  0  0  0  0  0  0  0  0
    5.8060   -1.9334    0.0000 H   0  0  0  0  0  0  0  0  0  0  0  0
    6.8798   -1.9458    0.0000 H   0  0  0  0  0  0  0  0  0  0  0  0
  4  1  1  1  0  0  0
  1 34  1  0  0  0  0
  2  3  1  0  0  0  0
  2  6  1  0  0  0  0
  2  8  1  0  0  0  0
  2 11  1  6  0  0  0
  3  4  1  0  0  0  0
  3  9  1  0  0  0  0
  3 17  1  1  0  0  0
  4  5  1  0  0  0  0
  4 18  1  0  0  0  0
  5  7  1  0  0  0  0
  5 12  1  6  0  0  0
  5 19  1  0  0  0  0
  6  7  1  0  0  0  0
  6 20  1  0  0  0  0
  6 21  1  0  0  0  0
  7 22  1  0  0  0  0
  7 23  1  0  0  0  0
  8 10  1  0  0  0  0
  8 24  1  0  0  0  0
  8 25  1  0  0  0  0
  9 13  1  0  0  0  0
  9 16  2  0  0  0  0
 10 13  1  0  0  0  0
 10 26  1  0  0  0  0
 10 27  1  0  0  0  0
 11 28  1  0  0  0  0
 11 29  1  0  0  0  0
 11 30  1  0  0  0  0
 12 14  1  0  0  0  0
 12 15  1  0  0  0  0
 12 31  1  0  0  0  0
 13 32  1  0  0  0  0
 13 33  1  0  0  0  0
 14 35  1  0  0  0  0
 14 36  1  0  0  0  0
 14 37  1  0  0  0  0
 15 38  1  0  0  0  0
 15 39  1  0  0  0  0
 15 40  1  0  0  0  0
 16 41  1  0  0  0  0
 16 42  1  0  0  0  0
M  END
> <PUBCHEM_COMPOUND_CID>
6452077

> <PUBCHEM_COMPOUND_CANONICALIZED>
1

> <PUBCHEM_CACTVS_COMPLEXITY>
281

> <PUBCHEM_CACTVS_HBOND_ACCEPTOR>
1

> <PUBCHEM_CACTVS_HBOND_DONOR>
1

> <PUBCHEM_CACTVS_ROTATABLE_BOND>
1

> <PUBCHEM_CACTVS_SUBSKEYS>
AAADceBwIAAAAAAAAAAAAAAAAAAAAAAAAAAwYAAAAAAAAADAAAAAGgAACAAADxSggAICAAAAAgCAAgBCAAAAAAAgAAAAAAAAAAgAEAIAAQAAQAAEwAAAAAGAwPAPgAAAAAAAAACAAAYAADAAAAAAAAAAAA==

> <PUBCHEM_IUPAC_OPENEYE_NAME>
(1S,2S,4aR,8aS)-2-isopropyl-4a-methyl-8-methylene-decalin-1-ol

> <PUBCHEM_IUPAC_CAS_NAME>
(1S,2S,4aR,8aS)-4a-methyl-8-methylene-2-propan-2-yl-1,2,3,4,5,6,7,8a-octahydronaphthalen-1-ol

> <PUBCHEM_IUPAC_NAME_MARKUP>
(1<I>S</I>,2<I>S</I>,4<I>a</I><I>R</I>,8<I>a</I><I>S</I>)-4<I>a</I>-methyl-8-methylidene-2-propan-2-yl-1,2,3,4,5,6,7,8<I>a</I>-octahydronaphthalen-1-ol

> <PUBCHEM_IUPAC_NAME>
(1S,2S,4aR,8aS)-4a-methyl-8-methylidene-2-propan-2-yl-1,2,3,4,5,6,7,8a-octahydronaphthalen-1-ol

> <PUBCHEM_IUPAC_SYSTEMATIC_NAME>
(1S,2S,4aR,8aS)-4a-methyl-8-methylidene-2-propan-2-yl-1,2,3,4,5,6,7,8a-octahydronaphthalen-1-ol

> <PUBCHEM_IUPAC_TRADITIONAL_NAME>
(1S,2S,4aR,8aS)-2-isopropyl-4a-methyl-8-methylene-decalin-1-ol

> <PUBCHEM_IUPAC_INCHI>
InChI=1S/C15H26O/c1-10(2)12-7-9-15(4)8-5-6-11(3)13(15)14(12)16/h10,12-14,16H,3,5-9H2,1-2,4H3/t12-,13+,14-,15+/m0/s1

> <PUBCHEM_IUPAC_INCHIKEY>
MSJJKJCIFIGTJY-LJISPDSOSA-N

> <PUBCHEM_XLOGP3_AA>
4.2

> <PUBCHEM_EXACT_MASS>
222.198365449

> <PUBCHEM_MOLECULAR_FORMULA>
C15H26O

> <PUBCHEM_MOLECULAR_WEIGHT>
222.37

> <PUBCHEM_SMILES>
CC(C)[C@@H]1CC[C@]2(CCCC(=C)[C@@H]2[C@H]1O)C

> <PUBCHEM_CONNECTIVITY_SMILES>
CC(C)C1CCC2(CCCC(=C)C2C1O)C

> <PUBCHEM_CACTVS_TPSA>
20.2

> <PUBCHEM_MONOISOTOPIC_WEIGHT>
222.198365449

> <PUBCHEM_TOTAL_CHARGE>
0

> <PUBCHEM_HEAVY_ATOM_COUNT>
16

> <PUBCHEM_ATOM_DEF_STEREO_COUNT>
4

> <PUBCHEM_ATOM_UDEF_STEREO_COUNT>
0

> <PUBCHEM_BOND_DEF_STEREO_COUNT>
0

> <PUBCHEM_BOND_UDEF_STEREO_COUNT>
0

> <PUBCHEM_ISOTOPIC_ATOM_COUNT>
0

> <PUBCHEM_COMPONENT_COUNT>
1

> <PUBCHEM_CACTVS_TAUTO_COUNT>
-1

> <PUBCHEM_COORDINATE_TYPE>
1
5
255

> <PUBCHEM_BONDANNOTATIONS>
4  1  5
2  11  6
3  17  5
5  12  6

$$$$
