9796428
  -OEChem-01202622352D

 48 48  0     0  0  0  0  0  0999 V2000
    4.5981    0.1550    0.0000 O   0  0  0  0  0  0  0  0  0  0  0  0
    2.8660   -4.8450    0.0000 O   0  0  0  0  0  0  0  0  0  0  0  0
    4.5981   -5.8450    0.0000 O   0  0  0  0  0  0  0  0  0  0  0  0
    8.0622    4.1550    0.0000 C   0  0  0  0  0  0  0  0  0  0  0  0
    8.0622    3.1550    0.0000 C   0  0  0  0  0  0  0  0  0  0  0  0
    8.9282    4.6550    0.0000 C   0  0  0  0  0  0  0  0  0  0  0  0
    7.1962    2.6550    0.0000 C   0  0  0  0  0  0  0  0  0  0  0  0
    8.9282    5.6550    0.0000 C   0  0  0  0  0  0  0  0  0  0  0  0
    7.1962    1.6550    0.0000 C   0  0  0  0  0  0  0  0  0  0  0  0
    9.7942    6.1550    0.0000 C   0  0  0  0  0  0  0  0  0  0  0  0
    6.3301    1.1550    0.0000 C   0  0  0  0  0  0  0  0  0  0  0  0
    6.3301    0.1550    0.0000 C   0  0  0  0  0  0  0  0  0  0  0  0
    5.4641   -0.3450    0.0000 C   0  0  0  0  0  0  0  0  0  0  0  0
    4.5981   -2.8450    0.0000 C   0  0  0  0  0  0  0  0  0  0  0  0
    5.4641   -1.3450    0.0000 C   0  0  0  0  0  0  0  0  0  0  0  0
    4.5981   -1.8450    0.0000 C   0  0  0  0  0  0  0  0  0  0  0  0
    3.7320   -3.3450    0.0000 C   0  0  0  0  0  0  0  0  0  0  0  0
    5.4641   -3.3450    0.0000 C   0  0  0  0  0  0  0  0  0  0  0  0
    3.7320   -4.3450    0.0000 C   0  0  0  0  0  0  0  0  0  0  0  0
    4.5981   -4.8450    0.0000 C   0  0  0  0  0  0  0  0  0  0  0  0
    5.4641   -4.3450    0.0000 C   0  0  0  0  0  0  0  0  0  0  0  0
    2.0000   -4.3450    0.0000 C   0  0  0  0  0  0  0  0  0  0  0  0
    7.8501    4.7376    0.0000 H   0  0  0  0  0  0  0  0  0  0  0  0
    7.4516    4.0473    0.0000 H   0  0  0  0  0  0  0  0  0  0  0  0
    8.2742    2.5724    0.0000 H   0  0  0  0  0  0  0  0  0  0  0  0
    8.6728    3.2627    0.0000 H   0  0  0  0  0  0  0  0  0  0  0  0
    9.1403    4.0724    0.0000 H   0  0  0  0  0  0  0  0  0  0  0  0
    9.5388    4.7627    0.0000 H   0  0  0  0  0  0  0  0  0  0  0  0
    6.9841    3.2376    0.0000 H   0  0  0  0  0  0  0  0  0  0  0  0
    6.5856    2.5473    0.0000 H   0  0  0  0  0  0  0  0  0  0  0  0
    8.7162    6.2376    0.0000 H   0  0  0  0  0  0  0  0  0  0  0  0
    8.3176    5.5473    0.0000 H   0  0  0  0  0  0  0  0  0  0  0  0
    7.4082    1.0724    0.0000 H   0  0  0  0  0  0  0  0  0  0  0  0
    7.8067    1.7627    0.0000 H   0  0  0  0  0  0  0  0  0  0  0  0
   10.1042    5.6181    0.0000 H   0  0  0  0  0  0  0  0  0  0  0  0
   10.3312    6.4650    0.0000 H   0  0  0  0  0  0  0  0  0  0  0  0
    9.4842    6.6919    0.0000 H   0  0  0  0  0  0  0  0  0  0  0  0
    5.7932    1.4650    0.0000 H   0  0  0  0  0  0  0  0  0  0  0  0
    6.8671   -0.1550    0.0000 H   0  0  0  0  0  0  0  0  0  0  0  0
    6.0010   -1.6550    0.0000 H   0  0  0  0  0  0  0  0  0  0  0  0
    4.0611   -1.5350    0.0000 H   0  0  0  0  0  0  0  0  0  0  0  0
    3.1951   -3.0350    0.0000 H   0  0  0  0  0  0  0  0  0  0  0  0
    6.0010   -3.0350    0.0000 H   0  0  0  0  0  0  0  0  0  0  0  0
    6.0010   -4.6550    0.0000 H   0  0  0  0  0  0  0  0  0  0  0  0
    5.1350   -6.1550    0.0000 H   0  0  0  0  0  0  0  0  0  0  0  0
    2.3100   -3.8081    0.0000 H   0  0  0  0  0  0  0  0  0  0  0  0
    1.4631   -4.0350    0.0000 H   0  0  0  0  0  0  0  0  0  0  0  0
    1.6900   -4.8819    0.0000 H   0  0  0  0  0  0  0  0  0  0  0  0
  1 13  2  0  0  0  0
  2 19  1  0  0  0  0
  2 22  1  0  0  0  0
  3 20  1  0  0  0  0
  3 45  1  0  0  0  0
  4  5  1  0  0  0  0
  4  6  1  0  0  0  0
  4 23  1  0  0  0  0
  4 24  1  0  0  0  0
  5  7  1  0  0  0  0
  5 25  1  0  0  0  0
  5 26  1  0  0  0  0
  6  8  1  0  0  0  0
  6 27  1  0  0  0  0
  6 28  1  0  0  0  0
  7  9  1  0  0  0  0
  7 29  1  0  0  0  0
  7 30  1  0  0  0  0
  8 10  1  0  0  0  0
  8 31  1  0  0  0  0
  8 32  1  0  0  0  0
  9 11  1  0  0  0  0
  9 33  1  0  0  0  0
  9 34  1  0  0  0  0
 10 35  1  0  0  0  0
 10 36  1  0  0  0  0
 10 37  1  0  0  0  0
 11 12  2  0  0  0  0
 11 38  1  0  0  0  0
 12 13  1  0  0  0  0
 12 39  1  0  0  0  0
 13 15  1  0  0  0  0
 14 16  1  0  0  0  0
 14 17  2  0  0  0  0
 14 18  1  0  0  0  0
 15 16  2  0  0  0  0
 15 40  1  0  0  0  0
 16 41  1  0  0  0  0
 17 19  1  0  0  0  0
 17 42  1  0  0  0  0
 18 21  2  0  0  0  0
 18 43  1  0  0  0  0
 19 20  2  0  0  0  0
 20 21  1  0  0  0  0
 21 44  1  0  0  0  0
 22 46  1  0  0  0  0
 22 47  1  0  0  0  0
 22 48  1  0  0  0  0
M  END
> <PUBCHEM_COMPOUND_CID>
9796428

> <PUBCHEM_COMPOUND_CANONICALIZED>
1

> <PUBCHEM_CACTVS_COMPLEXITY>
360

> <PUBCHEM_CACTVS_HBOND_ACCEPTOR>
3

> <PUBCHEM_CACTVS_HBOND_DONOR>
1

> <PUBCHEM_CACTVS_ROTATABLE_BOND>
10

> <PUBCHEM_CACTVS_SUBSKEYS>
AAADceB4MAAAAAAAAAAAAAAAAAAAAAAAAAAwAAAAAAAAAAABAAAAGgAACAAADASAmAIyBoAABgCIAqBSAAACCAAgIAAIiAAGiMgNJiKGMRqAcCMkwBELuYeAwJAOIAABAAAAQABAAAIAAACAAAAAAAAAAA==

> <PUBCHEM_IUPAC_OPENEYE_NAME>
(1E,4E)-1-(4-hydroxy-3-methoxy-phenyl)dodeca-1,4-dien-3-one

> <PUBCHEM_IUPAC_CAS_NAME>
(1E,4E)-1-(4-hydroxy-3-methoxyphenyl)-3-dodeca-1,4-dienone

> <PUBCHEM_IUPAC_NAME_MARKUP>
(1<I>E</I>,4<I>E</I>)-1-(4-hydroxy-3-methoxyphenyl)dodeca-1,4-dien-3-one

> <PUBCHEM_IUPAC_NAME>
(1E,4E)-1-(4-hydroxy-3-methoxyphenyl)dodeca-1,4-dien-3-one

> <PUBCHEM_IUPAC_SYSTEMATIC_NAME>
(1E,4E)-1-(3-methoxy-4-oxidanyl-phenyl)dodeca-1,4-dien-3-one

> <PUBCHEM_IUPAC_TRADITIONAL_NAME>
(1E,4E)-1-(4-hydroxy-3-methoxy-phenyl)dodeca-1,4-dien-3-one

> <PUBCHEM_IUPAC_INCHI>
InChI=1S/C19H26O3/c1-3-4-5-6-7-8-9-10-17(20)13-11-16-12-14-18(21)19(15-16)22-2/h9-15,21H,3-8H2,1-2H3/b10-9+,13-11+

> <PUBCHEM_IUPAC_INCHIKEY>
WTJRJJFXDZXSLU-SNMPHBPQSA-N

> <PUBCHEM_XLOGP3>
5.7

> <PUBCHEM_EXACT_MASS>
302.18819469

> <PUBCHEM_MOLECULAR_FORMULA>
C19H26O3

> <PUBCHEM_MOLECULAR_WEIGHT>
302.4

> <PUBCHEM_SMILES>
CCCCCCC/C=C/C(=O)/C=C/C1=CC(=C(C=C1)O)OC

> <PUBCHEM_CONNECTIVITY_SMILES>
CCCCCCCC=CC(=O)C=CC1=CC(=C(C=C1)O)OC

> <PUBCHEM_CACTVS_TPSA>
46.5

> <PUBCHEM_MONOISOTOPIC_WEIGHT>
302.18819469

> <PUBCHEM_TOTAL_CHARGE>
0

> <PUBCHEM_HEAVY_ATOM_COUNT>
22

> <PUBCHEM_ATOM_DEF_STEREO_COUNT>
0

> <PUBCHEM_ATOM_UDEF_STEREO_COUNT>
0

> <PUBCHEM_BOND_DEF_STEREO_COUNT>
2

> <PUBCHEM_BOND_UDEF_STEREO_COUNT>
0

> <PUBCHEM_ISOTOPIC_ATOM_COUNT>
0

> <PUBCHEM_COMPONENT_COUNT>
1

> <PUBCHEM_CACTVS_TAUTO_COUNT>
-1

> <PUBCHEM_COORDINATE_TYPE>
1
5
255

> <PUBCHEM_BONDANNOTATIONS>
14  17  8
14  18  8
17  19  8
18  21  8
19  20  8
20  21  8

$$$$
