6540685
  -OEChem-01202622342D

 65 68  0     1  0  0  0  0  0999 V2000
    5.1350   -3.5400    0.0000 O   0  0  0  0  0  0  0  0  0  0  0  0
    6.8671   -3.5400    0.0000 O   0  0  0  0  0  0  0  0  0  0  0  0
    5.1350   -6.5400    0.0000 O   0  0  0  0  0  0  0  0  0  0  0  0
    3.4030   -5.5400    0.0000 O   0  0  0  0  0  0  0  0  0  0  0  0
    6.8671   -5.5400    0.0000 O   0  0  0  0  0  0  0  0  0  0  0  0
    2.5369   -4.0400    0.0000 O   0  0  0  0  0  0  0  0  0  0  0  0
    5.1350   -2.5400    0.0000 O   0  0  0  0  0  0  0  0  0  0  0  0
    9.5650    1.4009    0.0000 O   0  0  0  0  0  0  0  0  0  0  0  0
    8.0650    2.2670    0.0000 O   0  0  0  0  0  0  0  0  0  0  0  0
    2.7585    3.9472    0.0000 O   0  0  0  0  0  0  0  0  0  0  0  0
    3.1157    2.2523    0.0000 O   0  0  0  0  0  0  0  0  0  0  0  0
    5.3369    6.2606    0.0000 O   0  0  0  0  0  0  0  0  0  0  0  0
    6.9832    5.7226    0.0000 O   0  0  0  0  0  0  0  0  0  0  0  0
    7.0763    0.4319    0.0000 N   0  0  0  0  0  0  0  0  0  0  0  0
    4.7156    4.3596    0.0000 N   0  0  0  0  0  0  0  0  0  0  0  0
    5.1350   -5.5400    0.0000 C   0  0  1  0  0  0  0  0  0  0  0  0
    4.2690   -5.0400    0.0000 C   0  0  1  0  0  0  0  0  0  0  0  0
    6.0010   -5.0400    0.0000 C   0  0  2  0  0  0  0  0  0  0  0  0
    4.2690   -4.0400    0.0000 C   0  0  1  0  0  0  0  0  0  0  0  0
    6.0010   -4.0400    0.0000 C   0  0  1  0  0  0  0  0  0  0  0  0
    8.0650    0.5349    0.0000 C   0  0  1  0  0  0  0  0  0  0  0  0
    8.4701   -0.3729    0.0000 C   0  0  0  0  0  0  0  0  0  0  0  0
    7.7331   -1.0400    0.0000 C   0  0  0  0  0  0  0  0  0  0  0  0
    6.8671   -0.5400    0.0000 C   0  0  0  0  0  0  0  0  0  0  0  0
    3.4030   -3.5400    0.0000 C   0  0  0  0  0  0  0  0  0  0  0  0
    6.8671   -2.5400    0.0000 C   0  0  0  0  0  0  0  0  0  0  0  0
    7.7331   -2.0400    0.0000 C   0  0  0  0  0  0  0  0  0  0  0  0
    6.0010   -1.0400    0.0000 C   0  0  0  0  0  0  0  0  0  0  0  0
    6.0010   -2.0400    0.0000 C   0  0  0  0  0  0  0  0  0  0  0  0
    6.4084    1.1762    0.0000 C   0  0  0  0  0  0  0  0  0  0  0  0
    8.5650    1.4009    0.0000 C   0  0  0  0  0  0  0  0  0  0  0  0
    6.7191    2.1267    0.0000 C   0  0  0  0  0  0  0  0  0  0  0  0
    6.0512    2.8710    0.0000 C   0  0  0  0  0  0  0  0  0  0  0  0
    5.0727    2.6648    0.0000 C   0  0  0  0  0  0  0  0  0  0  0  0
    4.4049    3.4091    0.0000 C   0  0  1  0  0  0  0  0  0  0  0  0
    6.3619    3.8215    0.0000 C   0  0  0  0  0  0  0  0  0  0  0  0
    5.6941    4.5658    0.0000 C   0  0  0  0  0  0  0  0  0  0  0  0
    3.4264    3.2029    0.0000 C   0  0  0  0  0  0  0  0  0  0  0  0
    6.0047    5.5163    0.0000 C   0  0  0  0  0  0  0  0  0  0  0  0
    4.5981   -5.8500    0.0000 H   0  0  0  0  0  0  0  0  0  0  0  0
    4.2690   -5.6600    0.0000 H   0  0  0  0  0  0  0  0  0  0  0  0
    6.0010   -5.6600    0.0000 H   0  0  0  0  0  0  0  0  0  0  0  0
    4.2690   -3.4200    0.0000 H   0  0  0  0  0  0  0  0  0  0  0  0
    6.0010   -3.4200    0.0000 H   0  0  0  0  0  0  0  0  0  0  0  0
    7.7275    1.0550    0.0000 H   0  0  0  0  0  0  0  0  0  0  0  0
    8.8355   -0.8737    0.0000 H   0  0  0  0  0  0  0  0  0  0  0  0
    9.0066   -0.0621    0.0000 H   0  0  0  0  0  0  0  0  0  0  0  0
    3.8015   -3.0650    0.0000 H   0  0  0  0  0  0  0  0  0  0  0  0
    3.0044   -3.0650    0.0000 H   0  0  0  0  0  0  0  0  0  0  0  0
    8.2700   -2.3500    0.0000 H   0  0  0  0  0  0  0  0  0  0  0  0
    5.4641   -0.7300    0.0000 H   0  0  0  0  0  0  0  0  0  0  0  0
    4.5981   -6.8500    0.0000 H   0  0  0  0  0  0  0  0  0  0  0  0
    3.4030   -6.1600    0.0000 H   0  0  0  0  0  0  0  0  0  0  0  0
    6.8671   -6.1600    0.0000 H   0  0  0  0  0  0  0  0  0  0  0  0
    5.8018    1.0483    0.0000 H   0  0  0  0  0  0  0  0  0  0  0  0
    2.0000   -3.7300    0.0000 H   0  0  0  0  0  0  0  0  0  0  0  0
    7.3258    2.2545    0.0000 H   0  0  0  0  0  0  0  0  0  0  0  0
    4.5464    2.3371    0.0000 H   0  0  0  0  0  0  0  0  0  0  0  0
    5.3040    2.0895    0.0000 H   0  0  0  0  0  0  0  0  0  0  0  0
    4.5981   -2.2300    0.0000 H   0  0  0  0  0  0  0  0  0  0  0  0
    3.9908    3.8705    0.0000 H   0  0  0  0  0  0  0  0  0  0  0  0
    9.8750    1.9379    0.0000 H   0  0  0  0  0  0  0  0  0  0  0  0
    6.9686    3.9494    0.0000 H   0  0  0  0  0  0  0  0  0  0  0  0
    2.1519    3.8193    0.0000 H   0  0  0  0  0  0  0  0  0  0  0  0
    5.5295    6.8500    0.0000 H   0  0  0  0  0  0  0  0  0  0  0  0
  1 19  1  0  0  0  0
  1 20  1  0  0  0  0
 20  2  1  1  0  0  0
  2 26  1  0  0  0  0
 16  3  1  1  0  0  0
  3 52  1  0  0  0  0
 17  4  1  6  0  0  0
  4 53  1  0  0  0  0
 18  5  1  6  0  0  0
  5 54  1  0  0  0  0
  6 25  1  0  0  0  0
  6 56  1  0  0  0  0
  7 29  1  0  0  0  0
  7 60  1  0  0  0  0
  8 31  1  0  0  0  0
  8 62  1  0  0  0  0
  9 31  2  0  0  0  0
 10 38  1  0  0  0  0
 10 64  1  0  0  0  0
 11 38  2  0  0  0  0
 12 39  1  0  0  0  0
 12 65  1  0  0  0  0
 13 39  2  0  0  0  0
 14 21  1  0  0  0  0
 14 24  1  0  0  0  0
 14 30  1  0  0  0  0
 15 35  1  0  0  0  0
 15 37  2  0  0  0  0
 16 17  1  0  0  0  0
 16 18  1  0  0  0  0
 16 40  1  0  0  0  0
 17 19  1  0  0  0  0
 17 41  1  0  0  0  0
 18 20  1  0  0  0  0
 18 42  1  0  0  0  0
 19 25  1  1  0  0  0
 19 43  1  0  0  0  0
 20 44  1  0  0  0  0
 21 22  1  0  0  0  0
 21 31  1  6  0  0  0
 21 45  1  0  0  0  0
 22 23  1  0  0  0  0
 22 46  1  0  0  0  0
 22 47  1  0  0  0  0
 23 24  1  0  0  0  0
 23 27  2  0  0  0  0
 24 28  2  0  0  0  0
 25 48  1  0  0  0  0
 25 49  1  0  0  0  0
 26 27  1  0  0  0  0
 26 29  2  0  0  0  0
 27 50  1  0  0  0  0
 28 29  1  0  0  0  0
 28 51  1  0  0  0  0
 30 32  2  0  0  0  0
 30 55  1  0  0  0  0
 32 33  1  0  0  0  0
 32 57  1  0  0  0  0
 33 34  1  0  0  0  0
 33 36  2  0  0  0  0
 34 35  1  0  0  0  0
 34 58  1  0  0  0  0
 34 59  1  0  0  0  0
 35 38  1  1  0  0  0
 35 61  1  0  0  0  0
 36 37  1  0  0  0  0
 36 63  1  0  0  0  0
 37 39  1  0  0  0  0
M  END
> <PUBCHEM_COMPOUND_CID>
6540685

> <PUBCHEM_COMPOUND_CANONICALIZED>
1

> <PUBCHEM_CACTVS_COMPLEXITY>
1060

> <PUBCHEM_CACTVS_HBOND_ACCEPTOR>
15

> <PUBCHEM_CACTVS_HBOND_DONOR>
8

> <PUBCHEM_CACTVS_ROTATABLE_BOND>
8

> <PUBCHEM_CACTVS_SUBSKEYS>
AAADceB7PAAAAAAAAAAAAAAAAAAAAWAAAAA0QIAAAAAAAFgBAAAAHgAACAAADDzxmAcwzoMABgCoAyT2TASCCAAhIgAIiAGe7JgfNjLGsbumeCvnwBnf+Af4+b+eIEABAgACQABAgAIEAASAAAAAAAAAAA==

> <PUBCHEM_IUPAC_OPENEYE_NAME>
(2S)-4-[(E)-2-[(2S)-2-carboxy-6-hydroxy-5-[(2S,3R,4S,5S,6R)-3,4,5-trihydroxy-6-(hydroxymethyl)tetrahydropyran-2-yl]oxy-indolin-1-yl]vinyl]-2,3-dihydropyridine-2,6-dicarboxylic acid

> <PUBCHEM_IUPAC_CAS_NAME>
(2S)-4-[(E)-2-[(2S)-2-carboxy-6-hydroxy-5-[[(2S,3R,4S,5S,6R)-3,4,5-trihydroxy-6-(hydroxymethyl)-2-oxanyl]oxy]-2,3-dihydroindol-1-yl]ethenyl]-2,3-dihydropyridine-2,6-dicarboxylic acid

> <PUBCHEM_IUPAC_NAME_MARKUP>
(2<I>S</I>)-4-[(<I>E</I>)-2-[(2<I>S</I>)-2-carboxy-6-hydroxy-5-[(2<I>S</I>,3<I>R</I>,4<I>S</I>,5<I>S</I>,6<I>R</I>)-3,4,5-trihydroxy-6-(hydroxymethyl)oxan-2-yl]oxy-2,3-dihydroindol-1-yl]ethenyl]-2,3-dihydropyridine-2,6-dicarboxylic acid

> <PUBCHEM_IUPAC_NAME>
(2S)-4-[(E)-2-[(2S)-2-carboxy-6-hydroxy-5-[(2S,3R,4S,5S,6R)-3,4,5-trihydroxy-6-(hydroxymethyl)oxan-2-yl]oxy-2,3-dihydroindol-1-yl]ethenyl]-2,3-dihydropyridine-2,6-dicarboxylic acid

> <PUBCHEM_IUPAC_SYSTEMATIC_NAME>
(2S)-4-[(E)-2-[(2S)-2-carboxy-5-[(2S,3R,4S,5S,6R)-6-(hydroxymethyl)-3,4,5-tris(oxidanyl)oxan-2-yl]oxy-6-oxidanyl-2,3-dihydroindol-1-yl]ethenyl]-2,3-dihydropyridine-2,6-dicarboxylic acid

> <PUBCHEM_IUPAC_TRADITIONAL_NAME>
(2S)-4-[(E)-2-[(2S)-2-carboxy-6-hydroxy-5-[(2S,3R,4S,5S,6R)-3,4,5-trihydroxy-6-methylol-tetrahydropyran-2-yl]oxy-indolin-1-yl]vinyl]-2,3-dihydropyridine-2,6-dicarboxylic acid

> <PUBCHEM_IUPAC_INCHI>
InChI=1S/C24H26N2O13/c27-8-17-18(29)19(30)20(31)24(39-17)38-16-6-10-5-14(23(36)37)26(13(10)7-15(16)28)2-1-9-3-11(21(32)33)25-12(4-9)22(34)35/h1-3,6-7,12,14,17-20,24,27-31H,4-5,8H2,(H,32,33)(H,34,35)(H,36,37)/b2-1+/t12-,14-,17+,18+,19-,20+,24+/m0/s1

> <PUBCHEM_IUPAC_INCHIKEY>
CTMLKIKAUFEMLE-FTNGGYTGSA-N

> <PUBCHEM_XLOGP3_AA>
-1.3

> <PUBCHEM_EXACT_MASS>
550.14348889

> <PUBCHEM_MOLECULAR_FORMULA>
C24H26N2O13

> <PUBCHEM_MOLECULAR_WEIGHT>
550.5

> <PUBCHEM_SMILES>
C1[C@H](N=C(C=C1/C=C/N2[C@@H](CC3=CC(=C(C=C32)O)O[C@H]4[C@@H]([C@H]([C@@H]([C@H](O4)CO)O)O)O)C(=O)O)C(=O)O)C(=O)O

> <PUBCHEM_CONNECTIVITY_SMILES>
C1C(N=C(C=C1C=CN2C(CC3=CC(=C(C=C32)O)OC4C(C(C(C(O4)CO)O)O)O)C(=O)O)C(=O)O)C(=O)O

> <PUBCHEM_CACTVS_TPSA>
247

> <PUBCHEM_MONOISOTOPIC_WEIGHT>
550.14348889

> <PUBCHEM_TOTAL_CHARGE>
0

> <PUBCHEM_HEAVY_ATOM_COUNT>
39

> <PUBCHEM_ATOM_DEF_STEREO_COUNT>
7

> <PUBCHEM_ATOM_UDEF_STEREO_COUNT>
0

> <PUBCHEM_BOND_DEF_STEREO_COUNT>
1

> <PUBCHEM_BOND_UDEF_STEREO_COUNT>
0

> <PUBCHEM_ISOTOPIC_ATOM_COUNT>
0

> <PUBCHEM_COMPONENT_COUNT>
1

> <PUBCHEM_CACTVS_TAUTO_COUNT>
-1

> <PUBCHEM_COORDINATE_TYPE>
1
5
255

> <PUBCHEM_BONDANNOTATIONS>
19  25  5
20  2  5
21  31  6
23  24  8
23  27  8
24  28  8
26  27  8
26  29  8
28  29  8
16  3  5
35  38  5
17  4  6
18  5  6

$$$$
