9975813
  -OEChem-01202622352D

 62 62  0     0  0  0  0  0  0999 V2000
    7.7331    3.0000    0.0000 O   0  0  0  0  0  0  0  0  0  0  0  0
    4.2690    7.0000    0.0000 O   0  0  0  0  0  0  0  0  0  0  0  0
    2.5369    6.0000    0.0000 O   0  0  0  0  0  0  0  0  0  0  0  0
   10.3312   -3.5000    0.0000 C   0  0  0  0  0  0  0  0  0  0  0  0
    9.4651   -3.0000    0.0000 C   0  0  0  0  0  0  0  0  0  0  0  0
   10.3312   -4.5000    0.0000 C   0  0  0  0  0  0  0  0  0  0  0  0
    9.4651   -2.0000    0.0000 C   0  0  0  0  0  0  0  0  0  0  0  0
   11.1972   -5.0000    0.0000 C   0  0  0  0  0  0  0  0  0  0  0  0
    8.5991   -1.5000    0.0000 C   0  0  0  0  0  0  0  0  0  0  0  0
   11.1972   -6.0000    0.0000 C   0  0  0  0  0  0  0  0  0  0  0  0
    8.5991   -0.5000    0.0000 C   0  0  0  0  0  0  0  0  0  0  0  0
   12.0632   -6.5000    0.0000 C   0  0  0  0  0  0  0  0  0  0  0  0
    7.7331    0.0000    0.0000 C   0  0  0  0  0  0  0  0  0  0  0  0
   12.0632   -7.5000    0.0000 C   0  0  0  0  0  0  0  0  0  0  0  0
    7.7331    1.0000    0.0000 C   0  0  0  0  0  0  0  0  0  0  0  0
    6.8671    1.5000    0.0000 C   0  0  0  0  0  0  0  0  0  0  0  0
    6.0010    3.0000    0.0000 C   0  0  0  0  0  0  0  0  0  0  0  0
    6.0010    4.0000    0.0000 C   0  0  0  0  0  0  0  0  0  0  0  0
    6.8671    2.5000    0.0000 C   0  0  0  0  0  0  0  0  0  0  0  0
    5.1350    4.5000    0.0000 C   0  0  0  0  0  0  0  0  0  0  0  0
    5.1350    5.5000    0.0000 C   0  0  0  0  0  0  0  0  0  0  0  0
    4.2690    4.0000    0.0000 C   0  0  0  0  0  0  0  0  0  0  0  0
    4.2690    6.0000    0.0000 C   0  0  0  0  0  0  0  0  0  0  0  0
    3.4030    4.5000    0.0000 C   0  0  0  0  0  0  0  0  0  0  0  0
    3.4030    5.5000    0.0000 C   0  0  0  0  0  0  0  0  0  0  0  0
    5.1350    7.5000    0.0000 C   0  0  0  0  0  0  0  0  0  0  0  0
   10.9417   -3.6077    0.0000 H   0  0  0  0  0  0  0  0  0  0  0  0
   10.5432   -2.9174    0.0000 H   0  0  0  0  0  0  0  0  0  0  0  0
    8.8546   -2.8923    0.0000 H   0  0  0  0  0  0  0  0  0  0  0  0
    9.2531   -3.5826    0.0000 H   0  0  0  0  0  0  0  0  0  0  0  0
    9.7206   -4.3923    0.0000 H   0  0  0  0  0  0  0  0  0  0  0  0
   10.1191   -5.0826    0.0000 H   0  0  0  0  0  0  0  0  0  0  0  0
   10.0757   -2.1077    0.0000 H   0  0  0  0  0  0  0  0  0  0  0  0
    9.6772   -1.4174    0.0000 H   0  0  0  0  0  0  0  0  0  0  0  0
   11.8078   -5.1077    0.0000 H   0  0  0  0  0  0  0  0  0  0  0  0
   11.4092   -4.4174    0.0000 H   0  0  0  0  0  0  0  0  0  0  0  0
    7.9885   -1.3923    0.0000 H   0  0  0  0  0  0  0  0  0  0  0  0
    8.3871   -2.0826    0.0000 H   0  0  0  0  0  0  0  0  0  0  0  0
   10.5866   -5.8923    0.0000 H   0  0  0  0  0  0  0  0  0  0  0  0
   10.9851   -6.5826    0.0000 H   0  0  0  0  0  0  0  0  0  0  0  0
    9.2097   -0.6077    0.0000 H   0  0  0  0  0  0  0  0  0  0  0  0
    8.8112    0.0826    0.0000 H   0  0  0  0  0  0  0  0  0  0  0  0
   12.6738   -6.6077    0.0000 H   0  0  0  0  0  0  0  0  0  0  0  0
   12.2753   -5.9174    0.0000 H   0  0  0  0  0  0  0  0  0  0  0  0
    7.1225    0.1077    0.0000 H   0  0  0  0  0  0  0  0  0  0  0  0
    7.5210   -0.5826    0.0000 H   0  0  0  0  0  0  0  0  0  0  0  0
   11.4432   -7.5000    0.0000 H   0  0  0  0  0  0  0  0  0  0  0  0
   12.0632   -8.1200    0.0000 H   0  0  0  0  0  0  0  0  0  0  0  0
   12.6832   -7.5000    0.0000 H   0  0  0  0  0  0  0  0  0  0  0  0
    8.2700    1.3100    0.0000 H   0  0  0  0  0  0  0  0  0  0  0  0
    6.3301    1.1900    0.0000 H   0  0  0  0  0  0  0  0  0  0  0  0
    5.3905    3.1077    0.0000 H   0  0  0  0  0  0  0  0  0  0  0  0
    5.7890    2.4174    0.0000 H   0  0  0  0  0  0  0  0  0  0  0  0
    6.6116    3.8923    0.0000 H   0  0  0  0  0  0  0  0  0  0  0  0
    6.2131    4.5826    0.0000 H   0  0  0  0  0  0  0  0  0  0  0  0
    5.6720    5.8100    0.0000 H   0  0  0  0  0  0  0  0  0  0  0  0
    4.2690    3.3800    0.0000 H   0  0  0  0  0  0  0  0  0  0  0  0
    2.8660    4.1900    0.0000 H   0  0  0  0  0  0  0  0  0  0  0  0
    2.0000    5.6900    0.0000 H   0  0  0  0  0  0  0  0  0  0  0  0
    5.4450    6.9631    0.0000 H   0  0  0  0  0  0  0  0  0  0  0  0
    5.6720    7.8100    0.0000 H   0  0  0  0  0  0  0  0  0  0  0  0
    4.8250    8.0369    0.0000 H   0  0  0  0  0  0  0  0  0  0  0  0
  1 19  2  0  0  0  0
  2 23  1  0  0  0  0
  2 26  1  0  0  0  0
  3 25  1  0  0  0  0
  3 59  1  0  0  0  0
  4  5  1  0  0  0  0
  4  6  1  0  0  0  0
  4 27  1  0  0  0  0
  4 28  1  0  0  0  0
  5  7  1  0  0  0  0
  5 29  1  0  0  0  0
  5 30  1  0  0  0  0
  6  8  1  0  0  0  0
  6 31  1  0  0  0  0
  6 32  1  0  0  0  0
  7  9  1  0  0  0  0
  7 33  1  0  0  0  0
  7 34  1  0  0  0  0
  8 10  1  0  0  0  0
  8 35  1  0  0  0  0
  8 36  1  0  0  0  0
  9 11  1  0  0  0  0
  9 37  1  0  0  0  0
  9 38  1  0  0  0  0
 10 12  1  0  0  0  0
 10 39  1  0  0  0  0
 10 40  1  0  0  0  0
 11 13  1  0  0  0  0
 11 41  1  0  0  0  0
 11 42  1  0  0  0  0
 12 14  1  0  0  0  0
 12 43  1  0  0  0  0
 12 44  1  0  0  0  0
 13 15  1  0  0  0  0
 13 45  1  0  0  0  0
 13 46  1  0  0  0  0
 14 47  1  0  0  0  0
 14 48  1  0  0  0  0
 14 49  1  0  0  0  0
 15 16  2  0  0  0  0
 15 50  1  0  0  0  0
 16 19  1  0  0  0  0
 16 51  1  0  0  0  0
 17 18  1  0  0  0  0
 17 19  1  0  0  0  0
 17 52  1  0  0  0  0
 17 53  1  0  0  0  0
 18 20  1  0  0  0  0
 18 54  1  0  0  0  0
 18 55  1  0  0  0  0
 20 21  2  0  0  0  0
 20 22  1  0  0  0  0
 21 23  1  0  0  0  0
 21 56  1  0  0  0  0
 22 24  2  0  0  0  0
 22 57  1  0  0  0  0
 23 25  2  0  0  0  0
 24 25  1  0  0  0  0
 24 58  1  0  0  0  0
 26 60  1  0  0  0  0
 26 61  1  0  0  0  0
 26 62  1  0  0  0  0
M  END
> <PUBCHEM_COMPOUND_CID>
9975813

> <PUBCHEM_COMPOUND_CANONICALIZED>
1

> <PUBCHEM_CACTVS_COMPLEXITY>
378

> <PUBCHEM_CACTVS_HBOND_ACCEPTOR>
3

> <PUBCHEM_CACTVS_HBOND_DONOR>
1

> <PUBCHEM_CACTVS_ROTATABLE_BOND>
15

> <PUBCHEM_CACTVS_SUBSKEYS>
AAADcfB4MAAAAAAAAAAAAAAAAAAAAAAAAAAwAAAAAAAAAAABAAAAGgAACAAADASAmAIyBoAABgCIAqBSAAACCAAgIAAIiAEGiMgNJjKGMRqAcCMkwBELuYeIyLCOIAABAAAAQABAAAIAAACAAAAAAAAAAA==

> <PUBCHEM_IUPAC_OPENEYE_NAME>
(E)-1-(4-hydroxy-3-methoxy-phenyl)hexadec-4-en-3-one

> <PUBCHEM_IUPAC_CAS_NAME>
(E)-1-(4-hydroxy-3-methoxyphenyl)-4-hexadecen-3-one

> <PUBCHEM_IUPAC_NAME_MARKUP>
(<I>E</I>)-1-(4-hydroxy-3-methoxyphenyl)hexadec-4-en-3-one

> <PUBCHEM_IUPAC_NAME>
(E)-1-(4-hydroxy-3-methoxyphenyl)hexadec-4-en-3-one

> <PUBCHEM_IUPAC_SYSTEMATIC_NAME>
(E)-1-(3-methoxy-4-oxidanyl-phenyl)hexadec-4-en-3-one

> <PUBCHEM_IUPAC_TRADITIONAL_NAME>
(E)-1-(4-hydroxy-3-methoxy-phenyl)hexadec-4-en-3-one

> <PUBCHEM_IUPAC_INCHI>
InChI=1S/C23H36O3/c1-3-4-5-6-7-8-9-10-11-12-13-14-21(24)17-15-20-16-18-22(25)23(19-20)26-2/h13-14,16,18-19,25H,3-12,15,17H2,1-2H3/b14-13+

> <PUBCHEM_IUPAC_INCHIKEY>
WCQFXNQALHURHS-BUHFOSPRSA-N

> <PUBCHEM_XLOGP3>
6.9

> <PUBCHEM_EXACT_MASS>
360.26644501

> <PUBCHEM_MOLECULAR_FORMULA>
C23H36O3

> <PUBCHEM_MOLECULAR_WEIGHT>
360.5

> <PUBCHEM_SMILES>
CCCCCCCCCCC/C=C/C(=O)CCC1=CC(=C(C=C1)O)OC

> <PUBCHEM_CONNECTIVITY_SMILES>
CCCCCCCCCCCC=CC(=O)CCC1=CC(=C(C=C1)O)OC

> <PUBCHEM_CACTVS_TPSA>
46.5

> <PUBCHEM_MONOISOTOPIC_WEIGHT>
360.26644501

> <PUBCHEM_TOTAL_CHARGE>
0

> <PUBCHEM_HEAVY_ATOM_COUNT>
26

> <PUBCHEM_ATOM_DEF_STEREO_COUNT>
0

> <PUBCHEM_ATOM_UDEF_STEREO_COUNT>
0

> <PUBCHEM_BOND_DEF_STEREO_COUNT>
1

> <PUBCHEM_BOND_UDEF_STEREO_COUNT>
0

> <PUBCHEM_ISOTOPIC_ATOM_COUNT>
0

> <PUBCHEM_COMPONENT_COUNT>
1

> <PUBCHEM_CACTVS_TAUTO_COUNT>
-1

> <PUBCHEM_COORDINATE_TYPE>
1
5
255

> <PUBCHEM_BONDANNOTATIONS>
20  21  8
20  22  8
21  23  8
22  24  8
23  25  8
24  25  8

$$$$
