91694967
  -OEChem-01202614002D

 80 79  0     0  0  0  0  0  0999 V2000
    8.9282   -2.2500    0.0000 O   0  0  0  0  0  0  0  0  0  0  0  0
    9.7942   -3.7500    0.0000 O   0  0  0  0  0  0  0  0  0  0  0  0
   19.3205    0.7500    0.0000 C   0  0  0  0  0  0  0  0  0  0  0  0
   18.4545    0.2500    0.0000 C   0  0  0  0  0  0  0  0  0  0  0  0
   14.1244   -2.2500    0.0000 C   0  0  0  0  0  0  0  0  0  0  0  0
   13.2583   -2.7500    0.0000 C   0  0  0  0  0  0  0  0  0  0  0  0
   19.3205    1.7500    0.0000 C   0  0  0  0  0  0  0  0  0  0  0  0
   18.4545   -0.7500    0.0000 C   0  0  0  0  0  0  0  0  0  0  0  0
   14.9904   -2.7500    0.0000 C   0  0  0  0  0  0  0  0  0  0  0  0
   12.3923   -2.2500    0.0000 C   0  0  0  0  0  0  0  0  0  0  0  0
   20.1865    2.2500    0.0000 C   0  0  0  0  0  0  0  0  0  0  0  0
   17.5885   -1.2500    0.0000 C   0  0  0  0  0  0  0  0  0  0  0  0
   15.8564   -2.2500    0.0000 C   0  0  0  0  0  0  0  0  0  0  0  0
   11.5263   -2.7500    0.0000 C   0  0  0  0  0  0  0  0  0  0  0  0
   20.1865    3.2500    0.0000 C   0  0  0  0  0  0  0  0  0  0  0  0
   17.5885   -2.2500    0.0000 C   0  0  0  0  0  0  0  0  0  0  0  0
   16.7224   -2.7500    0.0000 C   0  0  0  0  0  0  0  0  0  0  0  0
   10.6603   -2.2500    0.0000 C   0  0  0  0  0  0  0  0  0  0  0  0
   21.0526    3.7500    0.0000 C   0  0  0  0  0  0  0  0  0  0  0  0
    9.7942   -2.7500    0.0000 C   0  0  0  0  0  0  0  0  0  0  0  0
    8.0622   -2.7500    0.0000 C   0  0  0  0  0  0  0  0  0  0  0  0
    5.4641   -2.2500    0.0000 C   0  0  0  0  0  0  0  0  0  0  0  0
    6.3301   -2.7500    0.0000 C   0  0  0  0  0  0  0  0  0  0  0  0
    7.1962   -2.2500    0.0000 C   0  0  0  0  0  0  0  0  0  0  0  0
    4.5981   -2.7500    0.0000 C   0  0  0  0  0  0  0  0  0  0  0  0
    6.3301   -3.7500    0.0000 C   0  0  0  0  0  0  0  0  0  0  0  0
    3.7320   -2.2500    0.0000 C   0  0  0  0  0  0  0  0  0  0  0  0
    2.8660   -2.7500    0.0000 C   0  0  0  0  0  0  0  0  0  0  0  0
    2.0000   -2.2500    0.0000 C   0  0  0  0  0  0  0  0  0  0  0  0
    2.8660   -3.7500    0.0000 C   0  0  0  0  0  0  0  0  0  0  0  0
   19.5326    0.1674    0.0000 H   0  0  0  0  0  0  0  0  0  0  0  0
   19.9311    0.8577    0.0000 H   0  0  0  0  0  0  0  0  0  0  0  0
   18.2424    0.8326    0.0000 H   0  0  0  0  0  0  0  0  0  0  0  0
   17.8439    0.1423    0.0000 H   0  0  0  0  0  0  0  0  0  0  0  0
   14.5229   -1.7750    0.0000 H   0  0  0  0  0  0  0  0  0  0  0  0
   13.7258   -1.7750    0.0000 H   0  0  0  0  0  0  0  0  0  0  0  0
   12.8598   -3.2250    0.0000 H   0  0  0  0  0  0  0  0  0  0  0  0
   13.6569   -3.2250    0.0000 H   0  0  0  0  0  0  0  0  0  0  0  0
   19.1085    2.3326    0.0000 H   0  0  0  0  0  0  0  0  0  0  0  0
   18.7099    1.6423    0.0000 H   0  0  0  0  0  0  0  0  0  0  0  0
   18.6665   -1.3326    0.0000 H   0  0  0  0  0  0  0  0  0  0  0  0
   19.0651   -0.6423    0.0000 H   0  0  0  0  0  0  0  0  0  0  0  0
   14.5919   -3.2250    0.0000 H   0  0  0  0  0  0  0  0  0  0  0  0
   15.3889   -3.2250    0.0000 H   0  0  0  0  0  0  0  0  0  0  0  0
   12.7908   -1.7750    0.0000 H   0  0  0  0  0  0  0  0  0  0  0  0
   11.9938   -1.7750    0.0000 H   0  0  0  0  0  0  0  0  0  0  0  0
   20.3986    1.6674    0.0000 H   0  0  0  0  0  0  0  0  0  0  0  0
   20.7971    2.3577    0.0000 H   0  0  0  0  0  0  0  0  0  0  0  0
   17.3764   -0.6674    0.0000 H   0  0  0  0  0  0  0  0  0  0  0  0
   16.9779   -1.3577    0.0000 H   0  0  0  0  0  0  0  0  0  0  0  0
   16.2549   -1.7750    0.0000 H   0  0  0  0  0  0  0  0  0  0  0  0
   15.4579   -1.7750    0.0000 H   0  0  0  0  0  0  0  0  0  0  0  0
   11.1278   -3.2250    0.0000 H   0  0  0  0  0  0  0  0  0  0  0  0
   11.9248   -3.2250    0.0000 H   0  0  0  0  0  0  0  0  0  0  0  0
   19.9745    3.8326    0.0000 H   0  0  0  0  0  0  0  0  0  0  0  0
   19.5760    3.1423    0.0000 H   0  0  0  0  0  0  0  0  0  0  0  0
   18.1254   -2.5600    0.0000 H   0  0  0  0  0  0  0  0  0  0  0  0
   16.7224   -3.3700    0.0000 H   0  0  0  0  0  0  0  0  0  0  0  0
   11.0588   -1.7750    0.0000 H   0  0  0  0  0  0  0  0  0  0  0  0
   10.2617   -1.7750    0.0000 H   0  0  0  0  0  0  0  0  0  0  0  0
   21.3626    3.2131    0.0000 H   0  0  0  0  0  0  0  0  0  0  0  0
   21.5895    4.0600    0.0000 H   0  0  0  0  0  0  0  0  0  0  0  0
   20.7426    4.2869    0.0000 H   0  0  0  0  0  0  0  0  0  0  0  0
    7.6636   -3.2250    0.0000 H   0  0  0  0  0  0  0  0  0  0  0  0
    8.4607   -3.2250    0.0000 H   0  0  0  0  0  0  0  0  0  0  0  0
    5.8626   -1.7750    0.0000 H   0  0  0  0  0  0  0  0  0  0  0  0
    5.0656   -1.7750    0.0000 H   0  0  0  0  0  0  0  0  0  0  0  0
    7.1962   -1.6300    0.0000 H   0  0  0  0  0  0  0  0  0  0  0  0
    4.1996   -3.2250    0.0000 H   0  0  0  0  0  0  0  0  0  0  0  0
    4.9966   -3.2250    0.0000 H   0  0  0  0  0  0  0  0  0  0  0  0
    5.7101   -3.7500    0.0000 H   0  0  0  0  0  0  0  0  0  0  0  0
    6.3301   -4.3700    0.0000 H   0  0  0  0  0  0  0  0  0  0  0  0
    6.9501   -3.7500    0.0000 H   0  0  0  0  0  0  0  0  0  0  0  0
    3.7320   -1.6300    0.0000 H   0  0  0  0  0  0  0  0  0  0  0  0
    2.3100   -1.7131    0.0000 H   0  0  0  0  0  0  0  0  0  0  0  0
    1.4631   -1.9400    0.0000 H   0  0  0  0  0  0  0  0  0  0  0  0
    1.6900   -2.7869    0.0000 H   0  0  0  0  0  0  0  0  0  0  0  0
    2.2460   -3.7500    0.0000 H   0  0  0  0  0  0  0  0  0  0  0  0
    2.8660   -4.3700    0.0000 H   0  0  0  0  0  0  0  0  0  0  0  0
    3.4860   -3.7500    0.0000 H   0  0  0  0  0  0  0  0  0  0  0  0
  1 20  1  0  0  0  0
  1 21  1  0  0  0  0
  2 20  2  0  0  0  0
  3  4  1  0  0  0  0
  3  7  1  0  0  0  0
  3 31  1  0  0  0  0
  3 32  1  0  0  0  0
  4  8  1  0  0  0  0
  4 33  1  0  0  0  0
  4 34  1  0  0  0  0
  5  6  1  0  0  0  0
  5  9  1  0  0  0  0
  5 35  1  0  0  0  0
  5 36  1  0  0  0  0
  6 10  1  0  0  0  0
  6 37  1  0  0  0  0
  6 38  1  0  0  0  0
  7 11  1  0  0  0  0
  7 39  1  0  0  0  0
  7 40  1  0  0  0  0
  8 12  1  0  0  0  0
  8 41  1  0  0  0  0
  8 42  1  0  0  0  0
  9 13  1  0  0  0  0
  9 43  1  0  0  0  0
  9 44  1  0  0  0  0
 10 14  1  0  0  0  0
 10 45  1  0  0  0  0
 10 46  1  0  0  0  0
 11 15  1  0  0  0  0
 11 47  1  0  0  0  0
 11 48  1  0  0  0  0
 12 16  1  0  0  0  0
 12 49  1  0  0  0  0
 12 50  1  0  0  0  0
 13 17  1  0  0  0  0
 13 51  1  0  0  0  0
 13 52  1  0  0  0  0
 14 18  1  0  0  0  0
 14 53  1  0  0  0  0
 14 54  1  0  0  0  0
 15 19  1  0  0  0  0
 15 55  1  0  0  0  0
 15 56  1  0  0  0  0
 16 17  2  0  0  0  0
 16 57  1  0  0  0  0
 17 58  1  0  0  0  0
 18 20  1  0  0  0  0
 18 59  1  0  0  0  0
 18 60  1  0  0  0  0
 19 61  1  0  0  0  0
 19 62  1  0  0  0  0
 19 63  1  0  0  0  0
 21 24  1  0  0  0  0
 21 64  1  0  0  0  0
 21 65  1  0  0  0  0
 22 23  1  0  0  0  0
 22 25  1  0  0  0  0
 22 66  1  0  0  0  0
 22 67  1  0  0  0  0
 23 24  2  0  0  0  0
 23 26  1  0  0  0  0
 24 68  1  0  0  0  0
 25 27  1  0  0  0  0
 25 69  1  0  0  0  0
 25 70  1  0  0  0  0
 26 71  1  0  0  0  0
 26 72  1  0  0  0  0
 26 73  1  0  0  0  0
 27 28  2  0  0  0  0
 27 74  1  0  0  0  0
 28 29  1  0  0  0  0
 28 30  1  0  0  0  0
 29 75  1  0  0  0  0
 29 76  1  0  0  0  0
 29 77  1  0  0  0  0
 30 78  1  0  0  0  0
 30 79  1  0  0  0  0
 30 80  1  0  0  0  0
M  END
> <PUBCHEM_COMPOUND_CID>
91694967

> <PUBCHEM_COMPOUND_CANONICALIZED>
1

> <PUBCHEM_CACTVS_COMPLEXITY>
481

> <PUBCHEM_CACTVS_HBOND_ACCEPTOR>
2

> <PUBCHEM_CACTVS_HBOND_DONOR>
0

> <PUBCHEM_CACTVS_ROTATABLE_BOND>
21

> <PUBCHEM_CACTVS_SUBSKEYS>
AAADcfB4MAAAAAAAAAAAAAAAAAAAAAAAAAAAAAAAAAAAAAAAAAAAGgAAAAAADACggAICCAAABACIAiDSCAAAAAAgAAAICAEAAAgABBIAIQACEAAEgAAIIAOIyKCAAAAAAAAAAAAAAAAAAAAAAAAAAAAAAA==

> <PUBCHEM_IUPAC_OPENEYE_NAME>
[(2E)-3,7-dimethylocta-2,6-dienyl] (Z)-octadec-9-enoate

> <PUBCHEM_IUPAC_CAS_NAME>
(Z)-9-octadecenoic acid [(2E)-3,7-dimethylocta-2,6-dienyl] ester

> <PUBCHEM_IUPAC_NAME_MARKUP>
[(2<I>E</I>)-3,7-dimethylocta-2,6-dienyl] (<I>Z</I>)-octadec-9-enoate

> <PUBCHEM_IUPAC_NAME>
[(2E)-3,7-dimethylocta-2,6-dienyl] (Z)-octadec-9-enoate

> <PUBCHEM_IUPAC_SYSTEMATIC_NAME>
[(2E)-3,7-dimethylocta-2,6-dienyl] (Z)-octadec-9-enoate

> <PUBCHEM_IUPAC_TRADITIONAL_NAME>
(Z)-octadec-9-enoic acid [(2E)-3,7-dimethylocta-2,6-dienyl] ester

> <PUBCHEM_IUPAC_INCHI>
InChI=1S/C28H50O2/c1-5-6-7-8-9-10-11-12-13-14-15-16-17-18-19-23-28(29)30-25-24-27(4)22-20-21-26(2)3/h12-13,21,24H,5-11,14-20,22-23,25H2,1-4H3/b13-12-,27-24+

> <PUBCHEM_IUPAC_INCHIKEY>
QCKYQBHVRCICQS-VBHPUSIBSA-N

> <PUBCHEM_XLOGP3_AA>
10.9

> <PUBCHEM_EXACT_MASS>
418.381080833

> <PUBCHEM_MOLECULAR_FORMULA>
C28H50O2

> <PUBCHEM_MOLECULAR_WEIGHT>
418.7

> <PUBCHEM_SMILES>
CCCCCCCC/C=C\CCCCCCCC(=O)OC/C=C(\C)/CCC=C(C)C

> <PUBCHEM_CONNECTIVITY_SMILES>
CCCCCCCCC=CCCCCCCCC(=O)OCC=C(C)CCC=C(C)C

> <PUBCHEM_CACTVS_TPSA>
26.3

> <PUBCHEM_MONOISOTOPIC_WEIGHT>
418.381080833

> <PUBCHEM_TOTAL_CHARGE>
0

> <PUBCHEM_HEAVY_ATOM_COUNT>
30

> <PUBCHEM_ATOM_DEF_STEREO_COUNT>
0

> <PUBCHEM_ATOM_UDEF_STEREO_COUNT>
0

> <PUBCHEM_BOND_DEF_STEREO_COUNT>
2

> <PUBCHEM_BOND_UDEF_STEREO_COUNT>
0

> <PUBCHEM_ISOTOPIC_ATOM_COUNT>
0

> <PUBCHEM_COMPONENT_COUNT>
1

> <PUBCHEM_CACTVS_TAUTO_COUNT>
-1

> <PUBCHEM_COORDINATE_TYPE>
1
5
255

$$$$
