14529
  -OEChem-01202622142D

 25 25  0     0  0  0  0  0  0999 V2000
    3.0000    2.3450    0.0000 O   0  0  0  0  0  0  0  0  0  0  0  0
    3.0000    1.3450    0.0000 C   0  0  0  0  0  0  0  0  0  0  0  0
    3.0000    0.3450    0.0000 C   0  0  0  0  0  0  0  0  0  0  0  0
    4.0000    1.3450    0.0000 C   0  0  0  0  0  0  0  0  0  0  0  0
    2.0000    1.3450    0.0000 C   0  0  0  0  0  0  0  0  0  0  0  0
    2.1340   -0.1550    0.0000 C   0  0  0  0  0  0  0  0  0  0  0  0
    3.8660   -0.1550    0.0000 C   0  0  0  0  0  0  0  0  0  0  0  0
    3.0000   -1.6550    0.0000 C   0  0  0  0  0  0  0  0  0  0  0  0
    2.1340   -1.1550    0.0000 C   0  0  0  0  0  0  0  0  0  0  0  0
    3.8660   -1.1550    0.0000 C   0  0  0  0  0  0  0  0  0  0  0  0
    3.0000   -2.6550    0.0000 C   0  0  0  0  0  0  0  0  0  0  0  0
    4.0000    0.7250    0.0000 H   0  0  0  0  0  0  0  0  0  0  0  0
    4.6200    1.3450    0.0000 H   0  0  0  0  0  0  0  0  0  0  0  0
    4.0000    1.9650    0.0000 H   0  0  0  0  0  0  0  0  0  0  0  0
    2.0000    1.9650    0.0000 H   0  0  0  0  0  0  0  0  0  0  0  0
    1.3800    1.3450    0.0000 H   0  0  0  0  0  0  0  0  0  0  0  0
    2.0000    0.7250    0.0000 H   0  0  0  0  0  0  0  0  0  0  0  0
    1.5970    0.1550    0.0000 H   0  0  0  0  0  0  0  0  0  0  0  0
    4.4030    0.1550    0.0000 H   0  0  0  0  0  0  0  0  0  0  0  0
    1.5970   -1.4650    0.0000 H   0  0  0  0  0  0  0  0  0  0  0  0
    4.4030   -1.4650    0.0000 H   0  0  0  0  0  0  0  0  0  0  0  0
    3.5369    2.6550    0.0000 H   0  0  0  0  0  0  0  0  0  0  0  0
    2.3800   -2.6550    0.0000 H   0  0  0  0  0  0  0  0  0  0  0  0
    3.0000   -3.2750    0.0000 H   0  0  0  0  0  0  0  0  0  0  0  0
    3.6200   -2.6550    0.0000 H   0  0  0  0  0  0  0  0  0  0  0  0
  1  2  1  0  0  0  0
  1 22  1  0  0  0  0
  2  3  1  0  0  0  0
  2  4  1  0  0  0  0
  2  5  1  0  0  0  0
  3  6  2  0  0  0  0
  3  7  1  0  0  0  0
  4 12  1  0  0  0  0
  4 13  1  0  0  0  0
  4 14  1  0  0  0  0
  5 15  1  0  0  0  0
  5 16  1  0  0  0  0
  5 17  1  0  0  0  0
  6  9  1  0  0  0  0
  6 18  1  0  0  0  0
  7 10  2  0  0  0  0
  7 19  1  0  0  0  0
  8  9  2  0  0  0  0
  8 10  1  0  0  0  0
  8 11  1  0  0  0  0
  9 20  1  0  0  0  0
 10 21  1  0  0  0  0
 11 23  1  0  0  0  0
 11 24  1  0  0  0  0
 11 25  1  0  0  0  0
M  END
> <PUBCHEM_COMPOUND_CID>
14529

> <PUBCHEM_COMPOUND_CANONICALIZED>
1

> <PUBCHEM_CACTVS_COMPLEXITY>
121

> <PUBCHEM_CACTVS_HBOND_ACCEPTOR>
1

> <PUBCHEM_CACTVS_HBOND_DONOR>
1

> <PUBCHEM_CACTVS_ROTATABLE_BOND>
1

> <PUBCHEM_CACTVS_SUBSKEYS>
AAADccBwIAAAAAAAAAAAAAAAAAAAAAAAAAAwAAAAAAAAAAABAAAAGgAACAAADESAmAAyAIAAAgCAAiBCAAACAAAgAAAIiAAACIgIJiKAERCAcAAkwAEImAeAwPAOwAAAAAAAAACAAAAAAAAAAAAAAAAAAA==

> <PUBCHEM_IUPAC_OPENEYE_NAME>
2-(p-tolyl)propan-2-ol

> <PUBCHEM_IUPAC_CAS_NAME>
2-(4-methylphenyl)-2-propanol

> <PUBCHEM_IUPAC_NAME_MARKUP>
2-(4-methylphenyl)propan-2-ol

> <PUBCHEM_IUPAC_NAME>
2-(4-methylphenyl)propan-2-ol

> <PUBCHEM_IUPAC_SYSTEMATIC_NAME>
2-(4-methylphenyl)propan-2-ol

> <PUBCHEM_IUPAC_TRADITIONAL_NAME>
2-(p-tolyl)propan-2-ol

> <PUBCHEM_IUPAC_INCHI>
InChI=1S/C10H14O/c1-8-4-6-9(7-5-8)10(2,3)11/h4-7,11H,1-3H3

> <PUBCHEM_IUPAC_INCHIKEY>
XLPDVYGDNRIQFV-UHFFFAOYSA-N

> <PUBCHEM_XLOGP3_AA>
2

> <PUBCHEM_EXACT_MASS>
150.104465066

> <PUBCHEM_MOLECULAR_FORMULA>
C10H14O

> <PUBCHEM_MOLECULAR_WEIGHT>
150.22

> <PUBCHEM_SMILES>
CC1=CC=C(C=C1)C(C)(C)O

> <PUBCHEM_CONNECTIVITY_SMILES>
CC1=CC=C(C=C1)C(C)(C)O

> <PUBCHEM_CACTVS_TPSA>
20.2

> <PUBCHEM_MONOISOTOPIC_WEIGHT>
150.104465066

> <PUBCHEM_TOTAL_CHARGE>
0

> <PUBCHEM_HEAVY_ATOM_COUNT>
11

> <PUBCHEM_ATOM_DEF_STEREO_COUNT>
0

> <PUBCHEM_ATOM_UDEF_STEREO_COUNT>
0

> <PUBCHEM_BOND_DEF_STEREO_COUNT>
0

> <PUBCHEM_BOND_UDEF_STEREO_COUNT>
0

> <PUBCHEM_ISOTOPIC_ATOM_COUNT>
0

> <PUBCHEM_COMPONENT_COUNT>
1

> <PUBCHEM_CACTVS_TAUTO_COUNT>
-1

> <PUBCHEM_COORDINATE_TYPE>
1
5
255

> <PUBCHEM_BONDANNOTATIONS>
3  6  8
3  7  8
6  9  8
7  10  8
8  10  8
8  9  8

$$$$
