134737870
  -OEChem-01202622402D

 99101  0     1  0  0  0  0  0999 V2000
    6.0812   -4.3849    0.0000 O   0  0  0  0  0  0  0  0  0  0  0  0
    2.5369   -4.5801    0.0000 O   0  0  0  0  0  0  0  0  0  0  0  0
   22.6648    3.3481    0.0000 O   0  0  0  0  0  0  0  0  0  0  0  0
    5.1350   -4.0801    0.0000 C   0  0  1  0  0  0  0  0  0  0  0  0
    4.2690   -2.5801    0.0000 C   0  0  0  0  0  0  0  0  0  0  0  0
    5.1350   -3.0801    0.0000 C   0  0  0  0  0  0  0  0  0  0  0  0
    4.2690   -4.5801    0.0000 C   0  0  0  0  0  0  0  0  0  0  0  0
    3.4030   -3.0801    0.0000 C   0  0  0  0  0  0  0  0  0  0  0  0
    3.4030   -4.0801    0.0000 C   0  0  2  0  0  0  0  0  0  0  0  0
    6.0812   -2.7754    0.0000 C   0  0  0  0  0  0  0  0  0  0  0  0
    6.6648   -3.5801    0.0000 C   0  0  3  0  0  0  0  0  0  0  0  0
    5.1350   -5.0801    0.0000 C   0  0  0  0  0  0  0  0  0  0  0  0
    3.7690   -1.7141    0.0000 C   0  0  0  0  0  0  0  0  0  0  0  0
    4.7690   -1.7141    0.0000 C   0  0  0  0  0  0  0  0  0  0  0  0
    7.6648   -3.5801    0.0000 C   0  0  0  0  0  0  0  0  0  0  0  0
    8.1648   -4.4462    0.0000 C   0  0  0  0  0  0  0  0  0  0  0  0
    8.1648   -2.7141    0.0000 C   0  0  0  0  0  0  0  0  0  0  0  0
   20.1648    2.4821    0.0000 C   0  0  0  0  0  0  0  0  0  0  0  0
   21.1648    2.4821    0.0000 C   0  0  0  0  0  0  0  0  0  0  0  0
   21.6648    3.3481    0.0000 C   0  0  1  0  0  0  0  0  0  0  0  0
   19.6648    3.3481    0.0000 C   0  0  0  0  0  0  0  0  0  0  0  0
   21.1648    4.2141    0.0000 C   0  0  0  0  0  0  0  0  0  0  0  0
   20.1648    4.2141    0.0000 C   0  0  0  0  0  0  0  0  0  0  0  0
   20.1648    1.4821    0.0000 C   0  0  0  0  0  0  0  0  0  0  0  0
   19.2988    1.9821    0.0000 C   0  0  0  0  0  0  0  0  0  0  0  0
    9.1648   -2.7141    0.0000 C   0  0  0  0  0  0  0  0  0  0  0  0
   18.6648    3.3481    0.0000 C   0  0  0  0  0  0  0  0  0  0  0  0
   19.6648    5.0801    0.0000 C   0  0  0  0  0  0  0  0  0  0  0  0
    9.6648   -1.8481    0.0000 C   0  0  0  0  0  0  0  0  0  0  0  0
   18.1648    2.4821    0.0000 C   0  0  0  0  0  0  0  0  0  0  0  0
   10.6648   -1.8481    0.0000 C   0  0  0  0  0  0  0  0  0  0  0  0
   17.1648    2.4821    0.0000 C   0  0  0  0  0  0  0  0  0  0  0  0
   11.1648   -2.7141    0.0000 C   0  0  0  0  0  0  0  0  0  0  0  0
   11.1648   -0.9821    0.0000 C   0  0  0  0  0  0  0  0  0  0  0  0
   16.6648    3.3481    0.0000 C   0  0  0  0  0  0  0  0  0  0  0  0
   16.6648    1.6160    0.0000 C   0  0  0  0  0  0  0  0  0  0  0  0
   12.1648   -0.9821    0.0000 C   0  0  0  0  0  0  0  0  0  0  0  0
   15.6648    1.6160    0.0000 C   0  0  0  0  0  0  0  0  0  0  0  0
   12.6648   -0.1160    0.0000 C   0  0  0  0  0  0  0  0  0  0  0  0
   15.1648    0.7500    0.0000 C   0  0  0  0  0  0  0  0  0  0  0  0
   14.1648    0.7500    0.0000 C   0  0  0  0  0  0  0  0  0  0  0  0
   13.6648   -0.1160    0.0000 C   0  0  0  0  0  0  0  0  0  0  0  0
   13.6648    1.6160    0.0000 C   0  0  0  0  0  0  0  0  0  0  0  0
    3.8705   -5.0551    0.0000 H   0  0  0  0  0  0  0  0  0  0  0  0
    4.6675   -5.0551    0.0000 H   0  0  0  0  0  0  0  0  0  0  0  0
    3.1909   -2.4975    0.0000 H   0  0  0  0  0  0  0  0  0  0  0  0
    2.7924   -3.1878    0.0000 H   0  0  0  0  0  0  0  0  0  0  0  0
    3.4030   -4.7001    0.0000 H   0  0  0  0  0  0  0  0  0  0  0  0
    6.2738   -2.1861    0.0000 H   0  0  0  0  0  0  0  0  0  0  0  0
    6.9466   -4.1324    0.0000 H   0  0  0  0  0  0  0  0  0  0  0  0
    4.5150   -5.0801    0.0000 H   0  0  0  0  0  0  0  0  0  0  0  0
    5.1350   -5.7001    0.0000 H   0  0  0  0  0  0  0  0  0  0  0  0
    5.7550   -5.0801    0.0000 H   0  0  0  0  0  0  0  0  0  0  0  0
    4.3059   -1.4041    0.0000 H   0  0  0  0  0  0  0  0  0  0  0  0
    3.4590   -1.1772    0.0000 H   0  0  0  0  0  0  0  0  0  0  0  0
    3.2321   -2.0241    0.0000 H   0  0  0  0  0  0  0  0  0  0  0  0
    5.3059   -2.0241    0.0000 H   0  0  0  0  0  0  0  0  0  0  0  0
    5.0790   -1.1772    0.0000 H   0  0  0  0  0  0  0  0  0  0  0  0
    4.2321   -1.4041    0.0000 H   0  0  0  0  0  0  0  0  0  0  0  0
    2.0000   -4.2701    0.0000 H   0  0  0  0  0  0  0  0  0  0  0  0
    7.6279   -4.7562    0.0000 H   0  0  0  0  0  0  0  0  0  0  0  0
    8.4748   -4.9831    0.0000 H   0  0  0  0  0  0  0  0  0  0  0  0
    8.7018   -4.1362    0.0000 H   0  0  0  0  0  0  0  0  0  0  0  0
    7.8548   -2.1772    0.0000 H   0  0  0  0  0  0  0  0  0  0  0  0
   21.0572    1.8715    0.0000 H   0  0  0  0  0  0  0  0  0  0  0  0
   21.7474    2.2700    0.0000 H   0  0  0  0  0  0  0  0  0  0  0  0
   21.9748    2.8111    0.0000 H   0  0  0  0  0  0  0  0  0  0  0  0
   21.7474    4.4262    0.0000 H   0  0  0  0  0  0  0  0  0  0  0  0
   21.0572    4.8247    0.0000 H   0  0  0  0  0  0  0  0  0  0  0  0
   19.5448    1.4821    0.0000 H   0  0  0  0  0  0  0  0  0  0  0  0
   20.1648    0.8621    0.0000 H   0  0  0  0  0  0  0  0  0  0  0  0
   20.7848    1.4821    0.0000 H   0  0  0  0  0  0  0  0  0  0  0  0
   18.9888    2.5190    0.0000 H   0  0  0  0  0  0  0  0  0  0  0  0
   18.7619    1.6721    0.0000 H   0  0  0  0  0  0  0  0  0  0  0  0
   19.6088    1.4451    0.0000 H   0  0  0  0  0  0  0  0  0  0  0  0
    9.4748   -3.2510    0.0000 H   0  0  0  0  0  0  0  0  0  0  0  0
   18.3548    3.8850    0.0000 H   0  0  0  0  0  0  0  0  0  0  0  0
   20.2018    5.3901    0.0000 H   0  0  0  0  0  0  0  0  0  0  0  0
   19.3548    5.6171    0.0000 H   0  0  0  0  0  0  0  0  0  0  0  0
   19.1279    4.7701    0.0000 H   0  0  0  0  0  0  0  0  0  0  0  0
   22.9748    3.8850    0.0000 H   0  0  0  0  0  0  0  0  0  0  0  0
    9.3548   -1.3111    0.0000 H   0  0  0  0  0  0  0  0  0  0  0  0
   18.4748    1.9451    0.0000 H   0  0  0  0  0  0  0  0  0  0  0  0
   10.6279   -3.0241    0.0000 H   0  0  0  0  0  0  0  0  0  0  0  0
   11.4748   -3.2510    0.0000 H   0  0  0  0  0  0  0  0  0  0  0  0
   11.7018   -2.4041    0.0000 H   0  0  0  0  0  0  0  0  0  0  0  0
   10.8548   -0.4451    0.0000 H   0  0  0  0  0  0  0  0  0  0  0  0
   17.2018    3.6581    0.0000 H   0  0  0  0  0  0  0  0  0  0  0  0
   16.3548    3.8850    0.0000 H   0  0  0  0  0  0  0  0  0  0  0  0
   16.1279    3.0381    0.0000 H   0  0  0  0  0  0  0  0  0  0  0  0
   16.9748    1.0791    0.0000 H   0  0  0  0  0  0  0  0  0  0  0  0
   12.4748   -1.5190    0.0000 H   0  0  0  0  0  0  0  0  0  0  0  0
   15.3548    2.1530    0.0000 H   0  0  0  0  0  0  0  0  0  0  0  0
   15.4748    0.2131    0.0000 H   0  0  0  0  0  0  0  0  0  0  0  0
   12.3548    0.4209    0.0000 H   0  0  0  0  0  0  0  0  0  0  0  0
   13.9748   -0.6530    0.0000 H   0  0  0  0  0  0  0  0  0  0  0  0
   14.2018    1.9260    0.0000 H   0  0  0  0  0  0  0  0  0  0  0  0
   13.3548    2.1530    0.0000 H   0  0  0  0  0  0  0  0  0  0  0  0
   13.1279    1.3060    0.0000 H   0  0  0  0  0  0  0  0  0  0  0  0
  1  4  1  0  0  0  0
  1 11  1  0  0  0  0
  9  2  1  1  0  0  0
  2 60  1  0  0  0  0
 20  3  1  1  0  0  0
  3 81  1  0  0  0  0
  4  6  1  0  0  0  0
  4  7  1  0  0  0  0
  4 12  1  1  0  0  0
  5  6  1  0  0  0  0
  5  8  1  0  0  0  0
  5 13  1  0  0  0  0
  5 14  1  0  0  0  0
  6 10  2  0  0  0  0
  7  9  1  0  0  0  0
  7 44  1  0  0  0  0
  7 45  1  0  0  0  0
  8  9  1  0  0  0  0
  8 46  1  0  0  0  0
  8 47  1  0  0  0  0
  9 48  1  0  0  0  0
 10 11  1  0  0  0  0
 10 49  1  0  0  0  0
 11 15  1  0  0  0  0
 11 50  1  0  0  0  0
 12 51  1  0  0  0  0
 12 52  1  0  0  0  0
 12 53  1  0  0  0  0
 13 54  1  0  0  0  0
 13 55  1  0  0  0  0
 13 56  1  0  0  0  0
 14 57  1  0  0  0  0
 14 58  1  0  0  0  0
 14 59  1  0  0  0  0
 15 16  1  0  0  0  0
 15 17  2  0  0  0  0
 16 61  1  0  0  0  0
 16 62  1  0  0  0  0
 16 63  1  0  0  0  0
 17 26  1  0  0  0  0
 17 64  1  0  0  0  0
 18 19  1  0  0  0  0
 18 21  1  0  0  0  0
 18 24  1  0  0  0  0
 18 25  1  0  0  0  0
 19 20  1  0  0  0  0
 19 65  1  0  0  0  0
 19 66  1  0  0  0  0
 20 22  1  0  0  0  0
 20 67  1  0  0  0  0
 21 23  2  0  0  0  0
 21 27  1  0  0  0  0
 22 23  1  0  0  0  0
 22 68  1  0  0  0  0
 22 69  1  0  0  0  0
 23 28  1  0  0  0  0
 24 70  1  0  0  0  0
 24 71  1  0  0  0  0
 24 72  1  0  0  0  0
 25 73  1  0  0  0  0
 25 74  1  0  0  0  0
 25 75  1  0  0  0  0
 26 29  2  0  0  0  0
 26 76  1  0  0  0  0
 27 30  2  0  0  0  0
 27 77  1  0  0  0  0
 28 78  1  0  0  0  0
 28 79  1  0  0  0  0
 28 80  1  0  0  0  0
 29 31  1  0  0  0  0
 29 82  1  0  0  0  0
 30 32  1  0  0  0  0
 30 83  1  0  0  0  0
 31 33  1  0  0  0  0
 31 34  2  0  0  0  0
 32 35  1  0  0  0  0
 32 36  2  0  0  0  0
 33 84  1  0  0  0  0
 33 85  1  0  0  0  0
 33 86  1  0  0  0  0
 34 37  1  0  0  0  0
 34 87  1  0  0  0  0
 35 88  1  0  0  0  0
 35 89  1  0  0  0  0
 35 90  1  0  0  0  0
 36 38  1  0  0  0  0
 36 91  1  0  0  0  0
 37 39  2  0  0  0  0
 37 92  1  0  0  0  0
 38 40  2  0  0  0  0
 38 93  1  0  0  0  0
 39 42  1  0  0  0  0
 39 95  1  0  0  0  0
 40 41  1  0  0  0  0
 40 94  1  0  0  0  0
 41 42  2  0  0  0  0
 41 43  1  0  0  0  0
 42 96  1  0  0  0  0
 43 97  1  0  0  0  0
 43 98  1  0  0  0  0
 43 99  1  0  0  0  0
M  END
> <PUBCHEM_COMPOUND_CID>
134737870

> <PUBCHEM_COMPOUND_CANONICALIZED>
1

> <PUBCHEM_CACTVS_COMPLEXITY>
1330

> <PUBCHEM_CACTVS_HBOND_ACCEPTOR>
3

> <PUBCHEM_CACTVS_HBOND_DONOR>
2

> <PUBCHEM_CACTVS_ROTATABLE_BOND>
9

> <PUBCHEM_CACTVS_SUBSKEYS>
AAADcfB8MAAAAAAAAAAAAAAAAAAAAQAAAAAwQAAAAAAAAEAAAAAAGgAACAAADlSggAICAAAABgCAAiBCAAAAAAAgAAAICAAAAAgIFAIAIQACUAAFwAAIoAOA4NwPAAAAAAAAAAAAAAYQAAAAAAAAAAAAAA==

> <PUBCHEM_IUPAC_OPENEYE_NAME>
(6S,7aR)-2-[(1E,3E,5E,7E,9E,11E,13E,15E)-16-[(4R)-4-hydroxy-2,6,6-trimethyl-cyclohexen-1-yl]-1,5,10,14-tetramethyl-hexadeca-1,3,5,7,9,11,13,15-octaenyl]-4,4,7a-trimethyl-2,5,6,7-tetrahydrobenzofuran-6-ol

> <PUBCHEM_IUPAC_CAS_NAME>
(6S,7aR)-2-[(2E,4E,6E,8E,10E,12E,14E,16E)-17-[(4R)-4-hydroxy-2,6,6-trimethyl-1-cyclohexenyl]-6,11,15-trimethylheptadeca-2,4,6,8,10,12,14,16-octaen-2-yl]-4,4,7a-trimethyl-2,5,6,7-tetrahydrobenzofuran-6-ol

> <PUBCHEM_IUPAC_NAME_MARKUP>
(6<I>S</I>,7<I>a</I><I>R</I>)-2-[(2<I>E</I>,4<I>E</I>,6<I>E</I>,8<I>E</I>,10<I>E</I>,12<I>E</I>,14<I>E</I>,16<I>E</I>)-17-[(4<I>R</I>)-4-hydroxy-2,6,6-trimethylcyclohexen-1-yl]-6,11,15-trimethylheptadeca-2,4,6,8,10,12,14,16-octaen-2-yl]-4,4,7<I>a</I>-trimethyl-2,5,6,7-tetrahydro-1-benzofuran-6-ol

> <PUBCHEM_IUPAC_NAME>
(6S,7aR)-2-[(2E,4E,6E,8E,10E,12E,14E,16E)-17-[(4R)-4-hydroxy-2,6,6-trimethylcyclohexen-1-yl]-6,11,15-trimethylheptadeca-2,4,6,8,10,12,14,16-octaen-2-yl]-4,4,7a-trimethyl-2,5,6,7-tetrahydro-1-benzofuran-6-ol

> <PUBCHEM_IUPAC_SYSTEMATIC_NAME>
(6S,7aR)-4,4,7a-trimethyl-2-[(2E,4E,6E,8E,10E,12E,14E,16E)-6,11,15-trimethyl-17-[(4R)-2,6,6-trimethyl-4-oxidanyl-cyclohexen-1-yl]heptadeca-2,4,6,8,10,12,14,16-octaen-2-yl]-2,5,6,7-tetrahydro-1-benzofuran-6-ol

> <PUBCHEM_IUPAC_TRADITIONAL_NAME>
(6S,7aR)-2-[(1E,3E,5E,7E,9E,11E,13E,15E)-16-[(4R)-4-hydroxy-2,6,6-trimethyl-cyclohexen-1-yl]-1,5,10,14-tetramethyl-hexadeca-1,3,5,7,9,11,13,15-octaenyl]-4,4,7a-trimethyl-2,5,6,7-tetrahydrobenzofuran-6-ol

> <PUBCHEM_IUPAC_INCHI>
InChI=1S/C40H56O3/c1-28(17-13-18-30(3)21-22-35-32(5)23-33(41)25-38(35,6)7)15-11-12-16-29(2)19-14-20-31(4)36-24-37-39(8,9)26-34(42)27-40(37,10)43-36/h11-22,24,33-34,36,41-42H,23,25-27H2,1-10H3/b12-11+,17-13+,19-14+,22-21+,28-15+,29-16+,30-18+,31-20+/t33-,34+,36?,40-/m1/s1

> <PUBCHEM_IUPAC_INCHIKEY>
IFYMEZNJCAQUME-HHBFRJADSA-N

> <PUBCHEM_XLOGP3_AA>
10

> <PUBCHEM_EXACT_MASS>
584.42294564

> <PUBCHEM_MOLECULAR_FORMULA>
C40H56O3

> <PUBCHEM_MOLECULAR_WEIGHT>
584.9

> <PUBCHEM_SMILES>
CC1=C(C(C[C@@H](C1)O)(C)C)/C=C/C(=C/C=C/C(=C/C=C/C=C(\C)/C=C/C=C(\C)/C2C=C3[C@](O2)(C[C@H](CC3(C)C)O)C)/C)/C

> <PUBCHEM_CONNECTIVITY_SMILES>
CC1=C(C(CC(C1)O)(C)C)C=CC(=CC=CC(=CC=CC=C(C)C=CC=C(C)C2C=C3C(CC(CC3(O2)C)O)(C)C)C)C

> <PUBCHEM_CACTVS_TPSA>
49.7

> <PUBCHEM_MONOISOTOPIC_WEIGHT>
584.42294564

> <PUBCHEM_TOTAL_CHARGE>
0

> <PUBCHEM_HEAVY_ATOM_COUNT>
43

> <PUBCHEM_ATOM_DEF_STEREO_COUNT>
3

> <PUBCHEM_ATOM_UDEF_STEREO_COUNT>
1

> <PUBCHEM_BOND_DEF_STEREO_COUNT>
8

> <PUBCHEM_BOND_UDEF_STEREO_COUNT>
0

> <PUBCHEM_ISOTOPIC_ATOM_COUNT>
0

> <PUBCHEM_COMPONENT_COUNT>
1

> <PUBCHEM_CACTVS_TAUTO_COUNT>
-1

> <PUBCHEM_COORDINATE_TYPE>
1
5
255

> <PUBCHEM_BONDANNOTATIONS>
11  15  3
9  2  5
20  3  5
4  12  5

$$$$
