10448976
  -OEChem-01202622362D

 43 46  0     1  0  0  0  0  0999 V2000
    4.2663    1.4319    0.0000 O   0  0  0  0  0  0  0  0  0  0  0  0
    2.5381   -0.6164    0.0000 O   0  0  0  0  0  0  0  0  0  0  0  0
    8.6644    1.9111    0.0000 O   0  0  0  0  0  0  0  0  0  0  0  0
    5.1839    2.9457    0.0000 O   0  0  0  0  0  0  0  0  0  0  0  0
    8.5354   -0.2560    0.0000 N   0  0  0  0  0  0  0  0  0  0  0  0
    4.2663    0.3903    0.0000 C   0  0  3  0  0  0  0  0  0  0  0  0
    5.1724   -0.1236    0.0000 C   0  0  0  0  0  0  0  0  0  0  0  0
    3.4022   -0.1131    0.0000 C   0  0  0  0  0  0  0  0  0  0  0  0
    6.0663    0.4111    0.0000 C   0  0  0  0  0  0  0  0  0  0  0  0
    6.9323   -0.0889    0.0000 C   0  0  0  0  0  0  0  0  0  0  0  0
    6.0663    1.4111    0.0000 C   0  0  0  0  0  0  0  0  0  0  0  0
    7.7984    0.4111    0.0000 C   0  0  0  0  0  0  0  0  0  0  0  0
    7.1416   -1.0608    0.0000 C   0  0  0  0  0  0  0  0  0  0  0  0
    2.8989    0.7510    0.0000 C   0  0  0  0  0  0  0  0  0  0  0  0
    3.9056   -0.9772    0.0000 C   0  0  0  0  0  0  0  0  0  0  0  0
    5.1724    1.9457    0.0000 C   0  0  0  0  0  0  0  0  0  0  0  0
    8.1303   -1.1638    0.0000 C   0  0  0  0  0  0  0  0  0  0  0  0
    7.7984    1.4111    0.0000 C   0  0  0  0  0  0  0  0  0  0  0  0
    6.9323    1.9111    0.0000 C   0  0  0  0  0  0  0  0  0  0  0  0
    6.5208   -1.8895    0.0000 C   0  0  0  0  0  0  0  0  0  0  0  0
    8.5668   -2.1028    0.0000 C   0  0  0  0  0  0  0  0  0  0  0  0
    6.9355   -2.8383    0.0000 C   0  0  0  0  0  0  0  0  0  0  0  0
    7.9654   -2.9457    0.0000 C   0  0  0  0  0  0  0  0  0  0  0  0
    8.6644    2.9111    0.0000 C   0  0  0  0  0  0  0  0  0  0  0  0
    3.7288    0.6992    0.0000 H   0  0  0  0  0  0  0  0  0  0  0  0
    4.7788   -0.6026    0.0000 H   0  0  0  0  0  0  0  0  0  0  0  0
    5.5770   -0.5934    0.0000 H   0  0  0  0  0  0  0  0  0  0  0  0
    3.4346    1.0631    0.0000 H   0  0  0  0  0  0  0  0  0  0  0  0
    2.5868    1.2867    0.0000 H   0  0  0  0  0  0  0  0  0  0  0  0
    2.3632    0.4389    0.0000 H   0  0  0  0  0  0  0  0  0  0  0  0
    3.3698   -1.2892    0.0000 H   0  0  0  0  0  0  0  0  0  0  0  0
    4.2176   -1.5129    0.0000 H   0  0  0  0  0  0  0  0  0  0  0  0
    4.4413   -0.6651    0.0000 H   0  0  0  0  0  0  0  0  0  0  0  0
    6.9323    2.5311    0.0000 H   0  0  0  0  0  0  0  0  0  0  0  0
    9.1421   -0.1282    0.0000 H   0  0  0  0  0  0  0  0  0  0  0  0
    2.0000   -0.3085    0.0000 H   0  0  0  0  0  0  0  0  0  0  0  0
    5.9049   -1.8181    0.0000 H   0  0  0  0  0  0  0  0  0  0  0  0
    9.1841   -2.1599    0.0000 H   0  0  0  0  0  0  0  0  0  0  0  0
    6.5695   -3.3388    0.0000 H   0  0  0  0  0  0  0  0  0  0  0  0
    8.2202   -3.5109    0.0000 H   0  0  0  0  0  0  0  0  0  0  0  0
    9.2844    2.9111    0.0000 H   0  0  0  0  0  0  0  0  0  0  0  0
    8.6644    3.5311    0.0000 H   0  0  0  0  0  0  0  0  0  0  0  0
    8.0444    2.9111    0.0000 H   0  0  0  0  0  0  0  0  0  0  0  0
  1  6  1  0  0  0  0
  1 16  1  0  0  0  0
  2  8  1  0  0  0  0
  2 36  1  0  0  0  0
  3 18  1  0  0  0  0
  3 24  1  0  0  0  0
  4 16  2  0  0  0  0
  5 12  1  0  0  0  0
  5 17  1  0  0  0  0
  5 35  1  0  0  0  0
  6  7  1  0  0  0  0
  6  8  1  0  0  0  0
  6 25  1  0  0  0  0
  7  9  1  0  0  0  0
  7 26  1  0  0  0  0
  7 27  1  0  0  0  0
  8 14  1  0  0  0  0
  8 15  1  0  0  0  0
  9 10  2  0  0  0  0
  9 11  1  0  0  0  0
 10 12  1  0  0  0  0
 10 13  1  0  0  0  0
 11 16  1  0  0  0  0
 11 19  2  0  0  0  0
 12 18  2  0  0  0  0
 13 17  1  0  0  0  0
 13 20  2  0  0  0  0
 14 28  1  0  0  0  0
 14 29  1  0  0  0  0
 14 30  1  0  0  0  0
 15 31  1  0  0  0  0
 15 32  1  0  0  0  0
 15 33  1  0  0  0  0
 17 21  2  0  0  0  0
 18 19  1  0  0  0  0
 19 34  1  0  0  0  0
 20 22  1  0  0  0  0
 20 37  1  0  0  0  0
 21 23  1  0  0  0  0
 21 38  1  0  0  0  0
 22 23  2  0  0  0  0
 22 39  1  0  0  0  0
 23 40  1  0  0  0  0
 24 41  1  0  0  0  0
 24 42  1  0  0  0  0
 24 43  1  0  0  0  0
M  END
> <PUBCHEM_COMPOUND_CID>
10448976

> <PUBCHEM_COMPOUND_CANONICALIZED>
1

> <PUBCHEM_CACTVS_COMPLEXITY>
508

> <PUBCHEM_CACTVS_HBOND_ACCEPTOR>
4

> <PUBCHEM_CACTVS_HBOND_DONOR>
2

> <PUBCHEM_CACTVS_ROTATABLE_BOND>
2

> <PUBCHEM_CACTVS_SUBSKEYS>
AAADceB6OAAAAAAAAAAAAAAAAAAAAWAAAAA0YIAAAAAAAFiR/AAAHgAQCAAADFyhngIyzvLJlgCoAyTyTASCiCAlYiAImSE3bNgPJvLEtZuHcShk0BHb6Yfa3fPeqAADQAASEABQAAaAACQgAAAAAAAAAA==

> <PUBCHEM_IUPAC_OPENEYE_NAME>
2-(1-hydroxy-1-methyl-ethyl)-6-methoxy-2,7-dihydro-1H-pyrano[3,4-c]carbazol-4-one

> <PUBCHEM_IUPAC_CAS_NAME>
2-(2-hydroxypropan-2-yl)-6-methoxy-2,7-dihydro-1H-pyrano[3,4-c]carbazol-4-one

> <PUBCHEM_IUPAC_NAME_MARKUP>
2-(2-hydroxypropan-2-yl)-6-methoxy-2,7-dihydro-1<I>H</I>-pyrano[3,4-c]carbazol-4-one

> <PUBCHEM_IUPAC_NAME>
2-(2-hydroxypropan-2-yl)-6-methoxy-2,7-dihydro-1H-pyrano[3,4-c]carbazol-4-one

> <PUBCHEM_IUPAC_SYSTEMATIC_NAME>
6-methoxy-2-(2-oxidanylpropan-2-yl)-2,7-dihydro-1H-pyrano[3,4-c]carbazol-4-one

> <PUBCHEM_IUPAC_TRADITIONAL_NAME>
2-(1-hydroxy-1-methyl-ethyl)-6-methoxy-2,7-dihydro-1H-pyrano[3,4-c]carbazol-4-one

> <PUBCHEM_IUPAC_INCHI>
InChI=1S/C19H19NO4/c1-19(2,22)15-9-11-12(18(21)24-15)8-14(23-3)17-16(11)10-6-4-5-7-13(10)20-17/h4-8,15,20,22H,9H2,1-3H3

> <PUBCHEM_IUPAC_INCHIKEY>
UWUXJRWRYLZZIF-UHFFFAOYSA-N

> <PUBCHEM_XLOGP3_AA>
3.2

> <PUBCHEM_EXACT_MASS>
325.13140809

> <PUBCHEM_MOLECULAR_FORMULA>
C19H19NO4

> <PUBCHEM_MOLECULAR_WEIGHT>
325.4

> <PUBCHEM_SMILES>
CC(C)(C1CC2=C3C4=CC=CC=C4NC3=C(C=C2C(=O)O1)OC)O

> <PUBCHEM_CONNECTIVITY_SMILES>
CC(C)(C1CC2=C3C4=CC=CC=C4NC3=C(C=C2C(=O)O1)OC)O

> <PUBCHEM_CACTVS_TPSA>
71.6

> <PUBCHEM_MONOISOTOPIC_WEIGHT>
325.13140809

> <PUBCHEM_TOTAL_CHARGE>
0

> <PUBCHEM_HEAVY_ATOM_COUNT>
24

> <PUBCHEM_ATOM_DEF_STEREO_COUNT>
0

> <PUBCHEM_ATOM_UDEF_STEREO_COUNT>
1

> <PUBCHEM_BOND_DEF_STEREO_COUNT>
0

> <PUBCHEM_BOND_UDEF_STEREO_COUNT>
0

> <PUBCHEM_ISOTOPIC_ATOM_COUNT>
0

> <PUBCHEM_COMPONENT_COUNT>
1

> <PUBCHEM_CACTVS_TAUTO_COUNT>
-1

> <PUBCHEM_COORDINATE_TYPE>
1
5
255

> <PUBCHEM_BONDANNOTATIONS>
10  12  8
10  13  8
11  19  8
12  18  8
13  17  8
13  20  8
17  21  8
18  19  8
20  22  8
21  23  8
22  23  8
5  12  8
5  17  8
6  8  3
9  10  8
9  11  8

$$$$
