70874141
  -OEChem-01202622392D

 60 64  0     1  0  0  0  0  0999 V2000
    7.0164   -1.3944    0.0000 O   0  0  0  0  0  0  0  0  0  0  0  0
    8.5541    3.6688    0.0000 O   0  0  0  0  0  0  0  0  0  0  0  0
    8.3730    1.9462    0.0000 N   0  0  0  0  0  0  0  0  0  0  0  0
    5.3364   -2.1364    0.0000 N   0  0  0  0  0  0  0  0  0  0  0  0
    5.8311   -3.6679    0.0000 N   0  0  0  0  0  0  0  0  0  0  0  0
    7.1974    0.3282    0.0000 C   0  0  0  0  0  0  0  0  0  0  0  0
    6.6097   -0.4808    0.0000 C   0  0  3  0  0  0  0  0  0  0  0  0
    6.7907    1.2417    0.0000 C   0  0  0  0  0  0  0  0  0  0  0  0
    8.1920    0.2237    0.0000 C   0  0  0  0  0  0  0  0  0  0  0  0
    7.3785    2.0508    0.0000 C   0  0  0  0  0  0  0  0  0  0  0  0
    8.7798    1.0327    0.0000 C   0  0  0  0  0  0  0  0  0  0  0  0
    5.6151   -0.3763    0.0000 C   0  0  0  0  0  0  0  0  0  0  0  0
    9.9553    2.6507    0.0000 C   0  0  0  0  0  0  0  0  0  0  0  0
    5.0274   -1.1853    0.0000 C   0  0  3  0  0  0  0  0  0  0  0  0
    8.9608    2.7552    0.0000 C   0  0  0  0  0  0  0  0  0  0  0  0
   10.3621    1.7372    0.0000 C   0  0  0  0  0  0  0  0  0  0  0  0
   10.5431    3.4597    0.0000 C   0  0  0  0  0  0  0  0  0  0  0  0
   11.3566    1.6326    0.0000 C   0  0  0  0  0  0  0  0  0  0  0  0
   11.5376    3.3552    0.0000 C   0  0  0  0  0  0  0  0  0  0  0  0
   11.9444    2.4416    0.0000 C   0  0  0  0  0  0  0  0  0  0  0  0
    4.0274   -1.1853    0.0000 C   0  0  0  0  0  0  0  0  0  0  0  0
    4.5274   -2.7242    0.0000 C   0  0  0  0  0  0  0  0  0  0  0  0
    3.7183   -2.1364    0.0000 C   0  0  0  0  0  0  0  0  0  0  0  0
    6.1391   -2.7228    0.0000 C   0  0  0  0  0  0  0  0  0  0  0  0
    3.3424   -0.4006    0.0000 C   0  0  0  0  0  0  0  0  0  0  0  0
    4.8370   -3.6688    0.0000 C   0  0  0  0  0  0  0  0  0  0  0  0
    2.7029   -2.3686    0.0000 C   0  0  0  0  0  0  0  0  0  0  0  0
    2.3219   -0.6093    0.0000 C   0  0  0  0  0  0  0  0  0  0  0  0
    2.0000   -1.5999    0.0000 C   0  0  0  0  0  0  0  0  0  0  0  0
    6.5808    0.3930    0.0000 H   0  0  0  0  0  0  0  0  0  0  0  0
    6.2452   -0.9824    0.0000 H   0  0  0  0  0  0  0  0  0  0  0  0
    6.3600    1.6877    0.0000 H   0  0  0  0  0  0  0  0  0  0  0  0
    6.2767    0.8950    0.0000 H   0  0  0  0  0  0  0  0  0  0  0  0
    8.0211   -0.3723    0.0000 H   0  0  0  0  0  0  0  0  0  0  0  0
    8.7492   -0.0481    0.0000 H   0  0  0  0  0  0  0  0  0  0  0  0
    7.5494    2.6467    0.0000 H   0  0  0  0  0  0  0  0  0  0  0  0
    6.8212    2.3225    0.0000 H   0  0  0  0  0  0  0  0  0  0  0  0
    9.2104    0.5867    0.0000 H   0  0  0  0  0  0  0  0  0  0  0  0
    9.2938    1.3794    0.0000 H   0  0  0  0  0  0  0  0  0  0  0  0
    5.7860    0.2197    0.0000 H   0  0  0  0  0  0  0  0  0  0  0  0
    5.0579   -0.1045    0.0000 H   0  0  0  0  0  0  0  0  0  0  0  0
    9.7032    3.2171    0.0000 H   0  0  0  0  0  0  0  0  0  0  0  0
    5.6397   -1.2823    0.0000 H   0  0  0  0  0  0  0  0  0  0  0  0
    9.7605    1.5872    0.0000 H   0  0  0  0  0  0  0  0  0  0  0  0
   10.4053    1.1187    0.0000 H   0  0  0  0  0  0  0  0  0  0  0  0
   10.7140    4.0557    0.0000 H   0  0  0  0  0  0  0  0  0  0  0  0
    9.9859    3.7315    0.0000 H   0  0  0  0  0  0  0  0  0  0  0  0
   11.1857    1.0366    0.0000 H   0  0  0  0  0  0  0  0  0  0  0  0
   11.9138    1.3608    0.0000 H   0  0  0  0  0  0  0  0  0  0  0  0
   12.1392    3.5052    0.0000 H   0  0  0  0  0  0  0  0  0  0  0  0
   11.4944    3.9737    0.0000 H   0  0  0  0  0  0  0  0  0  0  0  0
   12.3751    1.9957    0.0000 H   0  0  0  0  0  0  0  0  0  0  0  0
   12.4584    2.7884    0.0000 H   0  0  0  0  0  0  0  0  0  0  0  0
    7.6330   -1.4592    0.0000 H   0  0  0  0  0  0  0  0  0  0  0  0
    6.7291   -2.5322    0.0000 H   0  0  0  0  0  0  0  0  0  0  0  0
    3.5408    0.1868    0.0000 H   0  0  0  0  0  0  0  0  0  0  0  0
    4.4734   -4.1710    0.0000 H   0  0  0  0  0  0  0  0  0  0  0  0
    2.5182   -2.9604    0.0000 H   0  0  0  0  0  0  0  0  0  0  0  0
    1.9088   -0.1469    0.0000 H   0  0  0  0  0  0  0  0  0  0  0  0
    1.3940   -1.7312    0.0000 H   0  0  0  0  0  0  0  0  0  0  0  0
  1  7  1  0  0  0  0
  1 54  1  0  0  0  0
  2 15  2  0  0  0  0
  3 10  1  0  0  0  0
  3 11  1  0  0  0  0
  3 15  1  0  0  0  0
  4 14  1  0  0  0  0
  4 22  1  0  0  0  0
  4 24  1  0  0  0  0
  5 24  2  0  0  0  0
  5 26  1  0  0  0  0
  6  7  1  0  0  0  0
  6  8  1  0  0  0  0
  6  9  1  0  0  0  0
  6 30  1  0  0  0  0
  7 12  1  0  0  0  0
  7 31  1  0  0  0  0
  8 10  1  0  0  0  0
  8 32  1  0  0  0  0
  8 33  1  0  0  0  0
  9 11  1  0  0  0  0
  9 34  1  0  0  0  0
  9 35  1  0  0  0  0
 10 36  1  0  0  0  0
 10 37  1  0  0  0  0
 11 38  1  0  0  0  0
 11 39  1  0  0  0  0
 12 14  1  0  0  0  0
 12 40  1  0  0  0  0
 12 41  1  0  0  0  0
 13 15  1  0  0  0  0
 13 16  1  0  0  0  0
 13 17  1  0  0  0  0
 13 42  1  0  0  0  0
 14 21  1  0  0  0  0
 14 43  1  0  0  0  0
 16 18  1  0  0  0  0
 16 44  1  0  0  0  0
 16 45  1  0  0  0  0
 17 19  1  0  0  0  0
 17 46  1  0  0  0  0
 17 47  1  0  0  0  0
 18 20  1  0  0  0  0
 18 48  1  0  0  0  0
 18 49  1  0  0  0  0
 19 20  1  0  0  0  0
 19 50  1  0  0  0  0
 19 51  1  0  0  0  0
 20 52  1  0  0  0  0
 20 53  1  0  0  0  0
 21 23  1  0  0  0  0
 21 25  2  0  0  0  0
 22 23  1  0  0  0  0
 22 26  2  0  0  0  0
 23 27  2  0  0  0  0
 24 55  1  0  0  0  0
 25 28  1  0  0  0  0
 25 56  1  0  0  0  0
 26 57  1  0  0  0  0
 27 29  1  0  0  0  0
 27 58  1  0  0  0  0
 28 29  2  0  0  0  0
 28 59  1  0  0  0  0
 29 60  1  0  0  0  0
M  END
> <PUBCHEM_COMPOUND_CID>
70874141

> <PUBCHEM_COMPOUND_CANONICALIZED>
1

> <PUBCHEM_CACTVS_COMPLEXITY>
570

> <PUBCHEM_CACTVS_HBOND_ACCEPTOR>
3

> <PUBCHEM_CACTVS_HBOND_DONOR>
1

> <PUBCHEM_CACTVS_ROTATABLE_BOND>
4

> <PUBCHEM_CACTVS_SUBSKEYS>
AAADceB7MAAAAAAAAAAAAAAAAAAAAWLAAAA8YIAAAAAWAFgBwAAAHgAACAAADTzhngY9kJcMEgCoAzV3dACCgC0xEqAJ2CE4dJiIeLLAmRGUYAhuhgLIyCe4yPCOgAAAAAAQAAAAAAAAACAAAAAAAAAAAA==

> <PUBCHEM_IUPAC_OPENEYE_NAME>
cyclohexyl-[4-[1-hydroxy-2-(5H-imidazo[5,1-a]isoindol-5-yl)ethyl]-1-piperidyl]methanone

> <PUBCHEM_IUPAC_CAS_NAME>
cyclohexyl-[4-[1-hydroxy-2-(5H-imidazo[5,1-a]isoindol-5-yl)ethyl]-1-piperidinyl]methanone

> <PUBCHEM_IUPAC_NAME_MARKUP>
cyclohexyl-[4-[1-hydroxy-2-(5<I>H</I>-imidazo[5,1-a]isoindol-5-yl)ethyl]piperidin-1-yl]methanone

> <PUBCHEM_IUPAC_NAME>
cyclohexyl-[4-[1-hydroxy-2-(5H-imidazo[5,1-a]isoindol-5-yl)ethyl]piperidin-1-yl]methanone

> <PUBCHEM_IUPAC_SYSTEMATIC_NAME>
cyclohexyl-[4-[2-(5H-imidazo[5,1-a]isoindol-5-yl)-1-oxidanyl-ethyl]piperidin-1-yl]methanone

> <PUBCHEM_IUPAC_TRADITIONAL_NAME>
cyclohexyl-[4-[1-hydroxy-2-(5H-imidaz[5,1-a]isoindol-5-yl)ethyl]piperidino]methanone

> <PUBCHEM_IUPAC_INCHI>
InChI=1S/C24H31N3O2/c28-23(14-21-19-8-4-5-9-20(19)22-15-25-16-27(21)22)17-10-12-26(13-11-17)24(29)18-6-2-1-3-7-18/h4-5,8-9,15-18,21,23,28H,1-3,6-7,10-14H2

> <PUBCHEM_IUPAC_INCHIKEY>
FDUHADIZUWTWAZ-UHFFFAOYSA-N

> <PUBCHEM_XLOGP3_AA>
3.4

> <PUBCHEM_EXACT_MASS>
393.24162724

> <PUBCHEM_MOLECULAR_FORMULA>
C24H31N3O2

> <PUBCHEM_MOLECULAR_WEIGHT>
393.5

> <PUBCHEM_SMILES>
C1CCC(CC1)C(=O)N2CCC(CC2)C(CC3C4=CC=CC=C4C5=CN=CN35)O

> <PUBCHEM_CONNECTIVITY_SMILES>
C1CCC(CC1)C(=O)N2CCC(CC2)C(CC3C4=CC=CC=C4C5=CN=CN35)O

> <PUBCHEM_CACTVS_TPSA>
58.4

> <PUBCHEM_MONOISOTOPIC_WEIGHT>
393.24162724

> <PUBCHEM_TOTAL_CHARGE>
0

> <PUBCHEM_HEAVY_ATOM_COUNT>
29

> <PUBCHEM_ATOM_DEF_STEREO_COUNT>
0

> <PUBCHEM_ATOM_UDEF_STEREO_COUNT>
2

> <PUBCHEM_BOND_DEF_STEREO_COUNT>
0

> <PUBCHEM_BOND_UDEF_STEREO_COUNT>
0

> <PUBCHEM_ISOTOPIC_ATOM_COUNT>
0

> <PUBCHEM_COMPONENT_COUNT>
1

> <PUBCHEM_CACTVS_TAUTO_COUNT>
-1

> <PUBCHEM_COORDINATE_TYPE>
1
5
255

> <PUBCHEM_BONDANNOTATIONS>
7  1  3
14  12  3
21  23  8
21  25  8
22  26  8
23  27  8
25  28  8
27  29  8
28  29  8
4  22  8
4  24  8
5  24  8
5  26  8

$$$$
