10432278
  -OEChem-01202622362D

 56 61  0     0  0  0  0  0  0999 V2000
    7.9206   -0.7440    0.0000 O   0  0  0  0  0  0  0  0  0  0  0  0
    6.6498    3.6400    0.0000 O   0  0  0  0  0  0  0  0  0  0  0  0
    5.3923   -0.2301    0.0000 N   0  0  0  0  0  0  0  0  0  0  0  0
    4.5274    3.0409    0.0000 N   0  0  0  0  0  0  0  0  0  0  0  0
    5.7123    0.7174    0.0000 C   0  0  0  0  0  0  0  0  0  0  0  0
    5.0274    1.5021    0.0000 C   0  0  0  0  0  0  0  0  0  0  0  0
    5.9707   -1.0458    0.0000 C   0  0  0  0  0  0  0  0  0  0  0  0
    4.4378   -0.5281    0.0000 C   0  0  0  0  0  0  0  0  0  0  0  0
    5.3736   -1.8480    0.0000 C   0  0  0  0  0  0  0  0  0  0  0  0
    4.4262   -1.5280    0.0000 C   0  0  0  0  0  0  0  0  0  0  0  0
    5.3364    2.4532    0.0000 C   0  0  0  0  0  0  0  0  0  0  0  0
    4.0274    1.5021    0.0000 C   0  0  0  0  0  0  0  0  0  0  0  0
    6.7328    0.9261    0.0000 C   0  0  0  0  0  0  0  0  0  0  0  0
    3.7183    2.4532    0.0000 C   0  0  0  0  0  0  0  0  0  0  0  0
    7.0071   -1.1507    0.0000 C   0  0  0  0  0  0  0  0  0  0  0  0
    6.3518    2.6854    0.0000 C   0  0  0  0  0  0  0  0  0  0  0  0
    7.0547    1.9167    0.0000 C   0  0  0  0  0  0  0  0  0  0  0  0
    5.7715   -2.8106    0.0000 C   0  0  0  0  0  0  0  0  0  0  0  0
    3.5501    0.0169    0.0000 C   0  0  0  0  0  0  0  0  0  0  0  0
    3.5261   -2.0523    0.0000 C   0  0  0  0  0  0  0  0  0  0  0  0
    6.8051   -2.9395    0.0000 C   0  0  0  0  0  0  0  0  0  0  0  0
    7.4271   -2.1039    0.0000 C   0  0  0  0  0  0  0  0  0  0  0  0
    7.6827    0.6134    0.0000 C   0  0  0  0  0  0  0  0  0  0  0  0
    3.3424    0.7174    0.0000 C   0  0  0  0  0  0  0  0  0  0  0  0
    2.7029    2.6854    0.0000 C   0  0  0  0  0  0  0  0  0  0  0  0
    2.6381   -0.4864    0.0000 C   0  0  0  0  0  0  0  0  0  0  0  0
    2.6261   -1.5280    0.0000 C   0  0  0  0  0  0  0  0  0  0  0  0
    2.3219    0.9261    0.0000 C   0  0  0  0  0  0  0  0  0  0  0  0
    2.0000    1.9167    0.0000 C   0  0  0  0  0  0  0  0  0  0  0  0
    7.1977   -3.8592    0.0000 C   0  0  0  0  0  0  0  0  0  0  0  0
    8.7296   -1.3318    0.0000 C   0  0  0  0  0  0  0  0  0  0  0  0
    7.6255    3.8592    0.0000 C   0  0  0  0  0  0  0  0  0  0  0  0
    4.5274    3.6609    0.0000 H   0  0  0  0  0  0  0  0  0  0  0  0
    7.6607    2.0480    0.0000 H   0  0  0  0  0  0  0  0  0  0  0  0
    5.3955   -3.3037    0.0000 H   0  0  0  0  0  0  0  0  0  0  0  0
    3.5644    0.6367    0.0000 H   0  0  0  0  0  0  0  0  0  0  0  0
    3.5261   -2.6723    0.0000 H   0  0  0  0  0  0  0  0  0  0  0  0
    8.0432   -2.1735    0.0000 H   0  0  0  0  0  0  0  0  0  0  0  0
    7.4888    0.0245    0.0000 H   0  0  0  0  0  0  0  0  0  0  0  0
    8.2716    0.4195    0.0000 H   0  0  0  0  0  0  0  0  0  0  0  0
    7.8766    1.2023    0.0000 H   0  0  0  0  0  0  0  0  0  0  0  0
    3.5408    0.1300    0.0000 H   0  0  0  0  0  0  0  0  0  0  0  0
    2.5182    3.2772    0.0000 H   0  0  0  0  0  0  0  0  0  0  0  0
    2.1060   -0.1682    0.0000 H   0  0  0  0  0  0  0  0  0  0  0  0
    2.0868   -1.8338    0.0000 H   0  0  0  0  0  0  0  0  0  0  0  0
    1.9088    0.4637    0.0000 H   0  0  0  0  0  0  0  0  0  0  0  0
    1.3940    2.0480    0.0000 H   0  0  0  0  0  0  0  0  0  0  0  0
    6.6275   -4.1026    0.0000 H   0  0  0  0  0  0  0  0  0  0  0  0
    7.4411   -4.4294    0.0000 H   0  0  0  0  0  0  0  0  0  0  0  0
    7.7679   -3.6158    0.0000 H   0  0  0  0  0  0  0  0  0  0  0  0
    8.3652   -1.8333    0.0000 H   0  0  0  0  0  0  0  0  0  0  0  0
    9.2312   -1.6962    0.0000 H   0  0  0  0  0  0  0  0  0  0  0  0
    9.0940   -0.8302    0.0000 H   0  0  0  0  0  0  0  0  0  0  0  0
    7.7614    3.2543    0.0000 H   0  0  0  0  0  0  0  0  0  0  0  0
    8.2304    3.9951    0.0000 H   0  0  0  0  0  0  0  0  0  0  0  0
    7.4896    4.4641    0.0000 H   0  0  0  0  0  0  0  0  0  0  0  0
  1 15  1  0  0  0  0
  1 31  1  0  0  0  0
  2 16  1  0  0  0  0
  2 32  1  0  0  0  0
  3  5  1  0  0  0  0
  3  7  1  0  0  0  0
  3  8  1  0  0  0  0
  4 11  1  0  0  0  0
  4 14  1  0  0  0  0
  4 33  1  0  0  0  0
  5  6  2  0  0  0  0
  5 13  1  0  0  0  0
  6 11  1  0  0  0  0
  6 12  1  0  0  0  0
  7  9  2  0  0  0  0
  7 15  1  0  0  0  0
  8 10  1  0  0  0  0
  8 19  2  0  0  0  0
  9 10  1  0  0  0  0
  9 18  1  0  0  0  0
 10 20  2  0  0  0  0
 11 16  2  0  0  0  0
 12 14  1  0  0  0  0
 12 24  2  0  0  0  0
 13 17  2  0  0  0  0
 13 23  1  0  0  0  0
 14 25  2  0  0  0  0
 15 22  2  0  0  0  0
 16 17  1  0  0  0  0
 17 34  1  0  0  0  0
 18 21  2  0  0  0  0
 18 35  1  0  0  0  0
 19 26  1  0  0  0  0
 19 36  1  0  0  0  0
 20 27  1  0  0  0  0
 20 37  1  0  0  0  0
 21 22  1  0  0  0  0
 21 30  1  0  0  0  0
 22 38  1  0  0  0  0
 23 39  1  0  0  0  0
 23 40  1  0  0  0  0
 23 41  1  0  0  0  0
 24 28  1  0  0  0  0
 24 42  1  0  0  0  0
 25 29  1  0  0  0  0
 25 43  1  0  0  0  0
 26 27  2  0  0  0  0
 26 44  1  0  0  0  0
 27 45  1  0  0  0  0
 28 29  2  0  0  0  0
 28 46  1  0  0  0  0
 29 47  1  0  0  0  0
 30 48  1  0  0  0  0
 30 49  1  0  0  0  0
 30 50  1  0  0  0  0
 31 51  1  0  0  0  0
 31 52  1  0  0  0  0
 31 53  1  0  0  0  0
 32 54  1  0  0  0  0
 32 55  1  0  0  0  0
 32 56  1  0  0  0  0
M  END
> <PUBCHEM_COMPOUND_CID>
10432278

> <PUBCHEM_COMPOUND_CANONICALIZED>
1

> <PUBCHEM_CACTVS_COMPLEXITY>
672

> <PUBCHEM_CACTVS_HBOND_ACCEPTOR>
2

> <PUBCHEM_CACTVS_HBOND_DONOR>
1

> <PUBCHEM_CACTVS_ROTATABLE_BOND>
3

> <PUBCHEM_CACTVS_SUBSKEYS>
AAADceB7MAAAAAAAAAAAAAAAAAAAAWLAAAAwYMGAAAAAAFgB/gAAHgAQAAAADAyBngIyxvPNlACgAyRiRASCiCAhYiAImSA3bJgOJuLE8duFNChk0BHY6Aew0PMOiEADAAQCEAAQgAYACAQgAAAAAAAAAA==

> <PUBCHEM_IUPAC_OPENEYE_NAME>
1-methoxy-4-(1-methoxy-3-methyl-carbazol-9-yl)-3-methyl-9H-carbazole

> <PUBCHEM_IUPAC_CAS_NAME>
1-methoxy-4-(1-methoxy-3-methyl-9-carbazolyl)-3-methyl-9H-carbazole

> <PUBCHEM_IUPAC_NAME_MARKUP>
1-methoxy-4-(1-methoxy-3-methylcarbazol-9-yl)-3-methyl-9<I>H</I>-carbazole

> <PUBCHEM_IUPAC_NAME>
1-methoxy-4-(1-methoxy-3-methylcarbazol-9-yl)-3-methyl-9H-carbazole

> <PUBCHEM_IUPAC_SYSTEMATIC_NAME>
1-methoxy-4-(1-methoxy-3-methyl-carbazol-9-yl)-3-methyl-9H-carbazole

> <PUBCHEM_IUPAC_TRADITIONAL_NAME>
1-methoxy-4-(1-methoxy-3-methyl-carbazol-9-yl)-3-methyl-9H-carbazole

> <PUBCHEM_IUPAC_INCHI>
InChI=1S/C28H24N2O2/c1-16-13-20-18-9-6-8-12-22(18)30(28(20)24(14-16)32-4)27-17(2)15-23(31-3)26-25(27)19-10-5-7-11-21(19)29-26/h5-15,29H,1-4H3

> <PUBCHEM_IUPAC_INCHIKEY>
OBQIZMYFDVTSTF-UHFFFAOYSA-N

> <PUBCHEM_XLOGP3_AA>
7.1

> <PUBCHEM_EXACT_MASS>
420.183778013

> <PUBCHEM_MOLECULAR_FORMULA>
C28H24N2O2

> <PUBCHEM_MOLECULAR_WEIGHT>
420.5

> <PUBCHEM_SMILES>
CC1=CC2=C(C(=C1)OC)N(C3=CC=CC=C32)C4=C5C6=CC=CC=C6NC5=C(C=C4C)OC

> <PUBCHEM_CONNECTIVITY_SMILES>
CC1=CC2=C(C(=C1)OC)N(C3=CC=CC=C32)C4=C5C6=CC=CC=C6NC5=C(C=C4C)OC

> <PUBCHEM_CACTVS_TPSA>
39.2

> <PUBCHEM_MONOISOTOPIC_WEIGHT>
420.183778013

> <PUBCHEM_TOTAL_CHARGE>
0

> <PUBCHEM_HEAVY_ATOM_COUNT>
32

> <PUBCHEM_ATOM_DEF_STEREO_COUNT>
0

> <PUBCHEM_ATOM_UDEF_STEREO_COUNT>
0

> <PUBCHEM_BOND_DEF_STEREO_COUNT>
0

> <PUBCHEM_BOND_UDEF_STEREO_COUNT>
0

> <PUBCHEM_ISOTOPIC_ATOM_COUNT>
0

> <PUBCHEM_COMPONENT_COUNT>
1

> <PUBCHEM_CACTVS_TAUTO_COUNT>
-1

> <PUBCHEM_COORDINATE_TYPE>
1
5
255

> <PUBCHEM_BONDANNOTATIONS>
10  20  8
11  16  8
12  14  8
12  24  8
13  17  8
14  25  8
15  22  8
16  17  8
18  21  8
19  26  8
20  27  8
21  22  8
24  28  8
25  29  8
26  27  8
28  29  8
3  7  8
3  8  8
4  11  8
4  14  8
5  13  8
5  6  8
6  11  8
6  12  8
7  15  8
7  9  8
8  10  8
8  19  8
9  10  8
9  18  8

$$$$
