101234926
  -OEChem-01202622392D

 97 99  0     1  0  0  0  0  0999 V2000
    6.1177    1.4479    0.0000 O   0  0  0  0  0  0  0  0  0  0  0  0
    8.7856   -2.7939    0.0000 O   0  0  0  0  0  0  0  0  0  0  0  0
    9.6966    0.6063    0.0000 O   0  0  0  0  0  0  0  0  0  0  0  0
   10.7351   -2.3907    0.0000 O   0  0  0  0  0  0  0  0  0  0  0  0
   13.8224   -0.5282    0.0000 O   0  0  0  0  0  0  0  0  0  0  0  0
   13.3047    1.4037    0.0000 O   0  0  0  0  0  0  0  0  0  0  0  0
    6.2405   -1.8663    0.0000 C   0  0  0  0  0  0  0  0  0  0  0  0
    7.4615   -1.0006    0.0000 C   0  0  1  0  0  0  0  0  0  0  0  0
    5.4115   -1.3071    0.0000 C   0  0  1  0  0  0  0  0  0  0  0  0
    7.7204   -0.0347    0.0000 C   0  0  2  0  0  0  0  0  0  0  0  0
    5.6871   -0.3458    0.0000 C   0  0  0  0  0  0  0  0  0  0  0  0
    6.9837    0.9479    0.0000 C   0  0  0  0  0  0  0  0  0  0  0  0
    7.9792    0.9313    0.0000 C   0  0  0  0  0  0  0  0  0  0  0  0
    7.2027   -1.9665    0.0000 C   0  0  0  0  0  0  0  0  0  0  0  0
    8.7332   -1.7952    0.0000 C   0  0  0  0  0  0  0  0  0  0  0  0
    5.7710   -2.7492    0.0000 C   0  0  0  0  0  0  0  0  0  0  0  0
    6.7704   -2.7143    0.0000 C   0  0  0  0  0  0  0  0  0  0  0  0
    9.1520   -0.2323    0.0000 C   0  0  0  0  0  0  0  0  0  0  0  0
    4.4718   -1.6491    0.0000 C   0  0  0  0  0  0  0  0  0  0  0  0
    9.5104   -1.1659    0.0000 C   0  0  0  0  0  0  0  0  0  0  0  0
    7.7204    1.8972    0.0000 C   0  0  2  0  0  0  0  0  0  0  0  0
    7.9098   -2.6736    0.0000 C   0  0  0  0  0  0  0  0  0  0  0  0
    3.7057   -1.0063    0.0000 C   0  0  0  0  0  0  0  0  0  0  0  0
    6.7544    2.1560    0.0000 C   0  0  0  0  0  0  0  0  0  0  0  0
   10.4763   -1.4247    0.0000 C   0  0  0  0  0  0  0  0  0  0  0  0
    8.4275    2.6043    0.0000 C   0  0  0  0  0  0  0  0  0  0  0  0
    7.6510   -3.6396    0.0000 C   0  0  0  0  0  0  0  0  0  0  0  0
    2.7660   -1.3483    0.0000 C   0  0  0  0  0  0  0  0  0  0  0  0
   11.1834   -0.7176    0.0000 C   0  0  0  0  0  0  0  0  0  0  0  0
    6.4956    3.1219    0.0000 C   0  0  0  0  0  0  0  0  0  0  0  0
    9.3934    2.3455    0.0000 C   0  0  0  0  0  0  0  0  0  0  0  0
    8.1686    3.5702    0.0000 C   0  0  0  0  0  0  0  0  0  0  0  0
    8.3581   -4.3467    0.0000 C   0  0  0  0  0  0  0  0  0  0  0  0
    6.6851   -3.8984    0.0000 C   0  0  0  0  0  0  0  0  0  0  0  0
    2.0000   -0.7055    0.0000 C   0  0  0  0  0  0  0  0  0  0  0  0
    2.5924   -2.3331    0.0000 C   0  0  0  0  0  0  0  0  0  0  0  0
    5.5297    3.3807    0.0000 C   0  0  0  0  0  0  0  0  0  0  0  0
   12.1493   -0.9765    0.0000 C   0  0  0  0  0  0  0  0  0  0  0  0
   10.9246    0.2483    0.0000 C   0  0  0  0  0  0  0  0  0  0  0  0
   12.8564   -0.2693    0.0000 C   0  0  0  0  0  0  0  0  0  0  0  0
   11.6317    0.9554    0.0000 C   0  0  0  0  0  0  0  0  0  0  0  0
    5.2709    4.3467    0.0000 C   0  0  0  0  0  0  0  0  0  0  0  0
    4.8226    2.6737    0.0000 C   0  0  0  0  0  0  0  0  0  0  0  0
   12.5976    0.6966    0.0000 C   0  0  0  0  0  0  0  0  0  0  0  0
   14.0812   -1.4941    0.0000 C   0  0  0  0  0  0  0  0  0  0  0  0
    5.3359   -1.9224    0.0000 H   0  0  0  0  0  0  0  0  0  0  0  0
    5.6821    0.2742    0.0000 H   0  0  0  0  0  0  0  0  0  0  0  0
    5.0728   -0.2620    0.0000 H   0  0  0  0  0  0  0  0  0  0  0  0
    8.4870    0.5756    0.0000 H   0  0  0  0  0  0  0  0  0  0  0  0
    7.3592    0.9313    0.0000 H   0  0  0  0  0  0  0  0  0  0  0  0
    6.6408   -1.7045    0.0000 H   0  0  0  0  0  0  0  0  0  0  0  0
    6.8471   -2.4744    0.0000 H   0  0  0  0  0  0  0  0  0  0  0  0
    5.2236   -2.4581    0.0000 H   0  0  0  0  0  0  0  0  0  0  0  0
    5.4800   -3.2966    0.0000 H   0  0  0  0  0  0  0  0  0  0  0  0
    6.3185   -3.0403    0.0000 H   0  0  0  0  0  0  0  0  0  0  0  0
    6.2446   -3.0429    0.0000 H   0  0  0  0  0  0  0  0  0  0  0  0
    7.0990   -3.2401    0.0000 H   0  0  0  0  0  0  0  0  0  0  0  0
    7.2962   -2.3858    0.0000 H   0  0  0  0  0  0  0  0  0  0  0  0
    3.9968   -2.0476    0.0000 H   0  0  0  0  0  0  0  0  0  0  0  0
    4.7818   -2.1860    0.0000 H   0  0  0  0  0  0  0  0  0  0  0  0
    7.2820    1.4588    0.0000 H   0  0  0  0  0  0  0  0  0  0  0  0
    8.5087   -2.5132    0.0000 H   0  0  0  0  0  0  0  0  0  0  0  0
    3.8134   -0.3957    0.0000 H   0  0  0  0  0  0  0  0  0  0  0  0
    6.1368    2.1020    0.0000 H   0  0  0  0  0  0  0  0  0  0  0  0
    6.7004    1.5384    0.0000 H   0  0  0  0  0  0  0  0  0  0  0  0
    6.9340    3.5603    0.0000 H   0  0  0  0  0  0  0  0  0  0  0  0
    9.2329    1.7466    0.0000 H   0  0  0  0  0  0  0  0  0  0  0  0
    9.9923    2.1850    0.0000 H   0  0  0  0  0  0  0  0  0  0  0  0
    9.5538    2.9443    0.0000 H   0  0  0  0  0  0  0  0  0  0  0  0
    8.6070    4.0086    0.0000 H   0  0  0  0  0  0  0  0  0  0  0  0
    7.5698    3.7307    0.0000 H   0  0  0  0  0  0  0  0  0  0  0  0
   11.3340   -2.5511    0.0000 H   0  0  0  0  0  0  0  0  0  0  0  0
    7.9197   -4.7851    0.0000 H   0  0  0  0  0  0  0  0  0  0  0  0
    8.7965   -4.7851    0.0000 H   0  0  0  0  0  0  0  0  0  0  0  0
    8.7965   -3.9083    0.0000 H   0  0  0  0  0  0  0  0  0  0  0  0
    6.5246   -3.2995    0.0000 H   0  0  0  0  0  0  0  0  0  0  0  0
    6.0862   -4.0588    0.0000 H   0  0  0  0  0  0  0  0  0  0  0  0
    6.8456   -4.4972    0.0000 H   0  0  0  0  0  0  0  0  0  0  0  0
    2.3985   -0.2306    0.0000 H   0  0  0  0  0  0  0  0  0  0  0  0
    1.5250   -0.3070    0.0000 H   0  0  0  0  0  0  0  0  0  0  0  0
    1.6015   -1.1805    0.0000 H   0  0  0  0  0  0  0  0  0  0  0  0
    1.9818   -2.2255    0.0000 H   0  0  0  0  0  0  0  0  0  0  0  0
    2.4847   -2.9437    0.0000 H   0  0  0  0  0  0  0  0  0  0  0  0
    3.2030   -2.4408    0.0000 H   0  0  0  0  0  0  0  0  0  0  0  0
   12.3098   -1.5753    0.0000 H   0  0  0  0  0  0  0  0  0  0  0  0
   10.3257    0.4088    0.0000 H   0  0  0  0  0  0  0  0  0  0  0  0
   11.4712    1.5543    0.0000 H   0  0  0  0  0  0  0  0  0  0  0  0
    5.8697    4.5071    0.0000 H   0  0  0  0  0  0  0  0  0  0  0  0
    5.1104    4.9455    0.0000 H   0  0  0  0  0  0  0  0  0  0  0  0
    4.6720    4.1862    0.0000 H   0  0  0  0  0  0  0  0  0  0  0  0
    4.3842    3.1121    0.0000 H   0  0  0  0  0  0  0  0  0  0  0  0
    4.3842    2.2353    0.0000 H   0  0  0  0  0  0  0  0  0  0  0  0
    5.2610    2.2353    0.0000 H   0  0  0  0  0  0  0  0  0  0  0  0
   13.1442    2.0026    0.0000 H   0  0  0  0  0  0  0  0  0  0  0  0
   13.4823   -1.6546    0.0000 H   0  0  0  0  0  0  0  0  0  0  0  0
   14.2416   -2.0930    0.0000 H   0  0  0  0  0  0  0  0  0  0  0  0
   14.6800   -1.3336    0.0000 H   0  0  0  0  0  0  0  0  0  0  0  0
  1 12  2  0  0  0  0
  2 15  2  0  0  0  0
  3 18  2  0  0  0  0
  4 25  1  0  0  0  0
  4 72  1  0  0  0  0
  5 40  1  0  0  0  0
  5 45  1  0  0  0  0
  6 44  1  0  0  0  0
  6 94  1  0  0  0  0
  7  8  1  0  0  0  0
  7  9  1  0  0  0  0
  7 16  1  0  0  0  0
  7 17  1  0  0  0  0
  8 12  1  0  0  0  0
  8 14  1  1  0  0  0
  8 15  1  0  0  0  0
  9 11  1  0  0  0  0
  9 19  1  6  0  0  0
  9 46  1  0  0  0  0
 10 11  1  0  0  0  0
 10 12  1  0  0  0  0
 10 13  1  6  0  0  0
 10 18  1  0  0  0  0
 11 47  1  0  0  0  0
 11 48  1  0  0  0  0
 13 21  1  0  0  0  0
 13 49  1  0  0  0  0
 13 50  1  0  0  0  0
 14 22  1  0  0  0  0
 14 51  1  0  0  0  0
 14 52  1  0  0  0  0
 15 20  1  0  0  0  0
 16 53  1  0  0  0  0
 16 54  1  0  0  0  0
 16 55  1  0  0  0  0
 17 56  1  0  0  0  0
 17 57  1  0  0  0  0
 17 58  1  0  0  0  0
 18 20  1  0  0  0  0
 19 23  1  0  0  0  0
 19 59  1  0  0  0  0
 19 60  1  0  0  0  0
 20 25  2  3  0  0  0
 21 24  1  6  0  0  0
 21 26  1  0  0  0  0
 21 61  1  0  0  0  0
 22 27  2  0  0  0  0
 22 62  1  0  0  0  0
 23 28  2  0  0  0  0
 23 63  1  0  0  0  0
 24 30  1  0  0  0  0
 24 64  1  0  0  0  0
 24 65  1  0  0  0  0
 25 29  1  0  0  0  0
 26 31  1  0  0  0  0
 26 32  2  0  0  0  0
 27 33  1  0  0  0  0
 27 34  1  0  0  0  0
 28 35  1  0  0  0  0
 28 36  1  0  0  0  0
 29 38  2  0  0  0  0
 29 39  1  0  0  0  0
 30 37  2  0  0  0  0
 30 66  1  0  0  0  0
 31 67  1  0  0  0  0
 31 68  1  0  0  0  0
 31 69  1  0  0  0  0
 32 70  1  0  0  0  0
 32 71  1  0  0  0  0
 33 73  1  0  0  0  0
 33 74  1  0  0  0  0
 33 75  1  0  0  0  0
 34 76  1  0  0  0  0
 34 77  1  0  0  0  0
 34 78  1  0  0  0  0
 35 79  1  0  0  0  0
 35 80  1  0  0  0  0
 35 81  1  0  0  0  0
 36 82  1  0  0  0  0
 36 83  1  0  0  0  0
 36 84  1  0  0  0  0
 37 42  1  0  0  0  0
 37 43  1  0  0  0  0
 38 40  1  0  0  0  0
 38 85  1  0  0  0  0
 39 41  2  0  0  0  0
 39 86  1  0  0  0  0
 40 44  2  0  0  0  0
 41 44  1  0  0  0  0
 41 87  1  0  0  0  0
 42 88  1  0  0  0  0
 42 89  1  0  0  0  0
 42 90  1  0  0  0  0
 43 91  1  0  0  0  0
 43 92  1  0  0  0  0
 43 93  1  0  0  0  0
 45 95  1  0  0  0  0
 45 96  1  0  0  0  0
 45 97  1  0  0  0  0
M  END
> <PUBCHEM_COMPOUND_CID>
101234926

> <PUBCHEM_COMPOUND_CANONICALIZED>
1

> <PUBCHEM_CACTVS_COMPLEXITY>
1310

> <PUBCHEM_CACTVS_HBOND_ACCEPTOR>
6

> <PUBCHEM_CACTVS_HBOND_DONOR>
2

> <PUBCHEM_CACTVS_ROTATABLE_BOND>
11

> <PUBCHEM_CACTVS_SUBSKEYS>
AAADcfB8OAAAAAAAAAAAAAAAAAAAAAAAAAAwYMAAAAAYAAABAAAAGgAACAAADwSAmAIyBoAABgCIAqBSAAACCAAgIAAIiAEGiMgNJjKOMRqAcCMkwBELuQfI6vSvoAABAAAAQADAAAYAACCAAAAAAAAAAA==

> <PUBCHEM_IUPAC_OPENEYE_NAME>
(1S,5R,7R)-3-[hydroxy-(4-hydroxy-3-methoxy-phenyl)methylene]-1-[(2S)-2-isopropenyl-5-methyl-hex-4-enyl]-6,6-dimethyl-5,7-bis(3-methylbut-2-enyl)bicyclo[3.3.1]nonane-2,4,9-trione

> <PUBCHEM_IUPAC_CAS_NAME>
(1S,5R,7R)-3-[hydroxy-(4-hydroxy-3-methoxyphenyl)methylidene]-6,6-dimethyl-5,7-bis(3-methylbut-2-enyl)-1-[(2S)-5-methyl-2-(1-methylethenyl)hex-4-enyl]bicyclo[3.3.1]nonane-2,4,9-trione

> <PUBCHEM_IUPAC_NAME_MARKUP>
(1<I>S</I>,5<I>R</I>,7<I>R</I>)-3-[hydroxy-(4-hydroxy-3-methoxyphenyl)methylidene]-6,6-dimethyl-5,7-bis(3-methylbut-2-enyl)-1-[(2<I>S</I>)-5-methyl-2-prop-1-en-2-ylhex-4-enyl]bicyclo[3.3.1]nonane-2,4,9-trione

> <PUBCHEM_IUPAC_NAME>
(1S,5R,7R)-3-[hydroxy-(4-hydroxy-3-methoxyphenyl)methylidene]-6,6-dimethyl-5,7-bis(3-methylbut-2-enyl)-1-[(2S)-5-methyl-2-prop-1-en-2-ylhex-4-enyl]bicyclo[3.3.1]nonane-2,4,9-trione

> <PUBCHEM_IUPAC_SYSTEMATIC_NAME>
(1S,5R,7R)-3-[(3-methoxy-4-oxidanyl-phenyl)-oxidanyl-methylidene]-6,6-dimethyl-5,7-bis(3-methylbut-2-enyl)-1-[(2S)-5-methyl-2-prop-1-en-2-yl-hex-4-enyl]bicyclo[3.3.1]nonane-2,4,9-trione

> <PUBCHEM_IUPAC_TRADITIONAL_NAME>
(1S,5R,7R)-3-[hydroxy-(4-hydroxy-3-methoxy-phenyl)methylene]-1-[(2S)-2-isopropenyl-5-methyl-hex-4-enyl]-6,6-dimethyl-5,7-bis(3-methylbut-2-enyl)bicyclo[3.3.1]nonane-2,4,9-trione

> <PUBCHEM_IUPAC_INCHI>
InChI=1S/C39H52O6/c1-23(2)12-14-28(26(7)8)21-38-22-29(16-13-24(3)4)37(9,10)39(36(38)44,19-18-25(5)6)35(43)32(34(38)42)33(41)27-15-17-30(40)31(20-27)45-11/h12-13,15,17-18,20,28-29,40-41H,7,14,16,19,21-22H2,1-6,8-11H3/t28-,29+,38+,39-/m0/s1

> <PUBCHEM_IUPAC_INCHIKEY>
VKYGWNXORASQSV-OXWAJMPISA-N

> <PUBCHEM_XLOGP3_AA>
10.6

> <PUBCHEM_EXACT_MASS>
616.37638937

> <PUBCHEM_MOLECULAR_FORMULA>
C39H52O6

> <PUBCHEM_MOLECULAR_WEIGHT>
616.8

> <PUBCHEM_SMILES>
CC(=CC[C@@H]1C[C@@]2(C(=O)C(=C(C3=CC(=C(C=C3)O)OC)O)C(=O)[C@@](C2=O)(C1(C)C)CC=C(C)C)C[C@H](CC=C(C)C)C(=C)C)C

> <PUBCHEM_CONNECTIVITY_SMILES>
CC(=CCC1CC2(C(=O)C(=C(C3=CC(=C(C=C3)O)OC)O)C(=O)C(C2=O)(C1(C)C)CC=C(C)C)CC(CC=C(C)C)C(=C)C)C

> <PUBCHEM_CACTVS_TPSA>
101

> <PUBCHEM_MONOISOTOPIC_WEIGHT>
616.37638937

> <PUBCHEM_TOTAL_CHARGE>
0

> <PUBCHEM_HEAVY_ATOM_COUNT>
45

> <PUBCHEM_ATOM_DEF_STEREO_COUNT>
4

> <PUBCHEM_ATOM_UDEF_STEREO_COUNT>
0

> <PUBCHEM_BOND_DEF_STEREO_COUNT>
0

> <PUBCHEM_BOND_UDEF_STEREO_COUNT>
1

> <PUBCHEM_ISOTOPIC_ATOM_COUNT>
0

> <PUBCHEM_COMPONENT_COUNT>
1

> <PUBCHEM_CACTVS_TAUTO_COUNT>
-1

> <PUBCHEM_COORDINATE_TYPE>
1
5
255

> <PUBCHEM_BONDANNOTATIONS>
10  13  6
20  25  1
21  24  6
29  38  8
29  39  8
38  40  8
39  41  8
40  44  8
41  44  8
8  14  5
9  19  6

$$$$
