145858
  -OEChem-01202622212D

 27 29  0     0  0  0  0  0  0999 V2000
    4.6660   -0.2673    0.0000 O   0  3  0  0  0  0  0  0  0  0  0  0
    3.8000    1.2327    0.0000 C   0  0  0  0  0  0  0  0  0  0  0  0
    5.5321    0.2327    0.0000 C   0  0  0  0  0  0  0  0  0  0  0  0
    3.8000    0.2327    0.0000 C   0  0  0  0  0  0  0  0  0  0  0  0
    6.3981   -0.2673    0.0000 C   0  0  0  0  0  0  0  0  0  0  0  0
    4.6660    1.7327    0.0000 C   0  0  0  0  0  0  0  0  0  0  0  0
    5.5321    1.2327    0.0000 C   0  0  0  0  0  0  0  0  0  0  0  0
    2.9061    1.7673    0.0000 C   0  0  0  0  0  0  0  0  0  0  0  0
    2.9061   -0.3020    0.0000 C   0  0  0  0  0  0  0  0  0  0  0  0
    6.3981   -1.2673    0.0000 C   0  0  0  0  0  0  0  0  0  0  0  0
    7.2641    0.2327    0.0000 C   0  0  0  0  0  0  0  0  0  0  0  0
    2.0000    1.2535    0.0000 C   0  0  0  0  0  0  0  0  0  0  0  0
    2.0000    0.2119    0.0000 C   0  0  0  0  0  0  0  0  0  0  0  0
    7.2641   -1.7673    0.0000 C   0  0  0  0  0  0  0  0  0  0  0  0
    8.1301   -0.2673    0.0000 C   0  0  0  0  0  0  0  0  0  0  0  0
    8.1301   -1.2673    0.0000 C   0  0  0  0  0  0  0  0  0  0  0  0
    4.6660    2.3527    0.0000 H   0  0  0  0  0  0  0  0  0  0  0  0
    6.0690    1.5427    0.0000 H   0  0  0  0  0  0  0  0  0  0  0  0
    2.9132    2.3873    0.0000 H   0  0  0  0  0  0  0  0  0  0  0  0
    2.9132   -0.9220    0.0000 H   0  0  0  0  0  0  0  0  0  0  0  0
    5.8612   -1.5773    0.0000 H   0  0  0  0  0  0  0  0  0  0  0  0
    7.2641    0.8527    0.0000 H   0  0  0  0  0  0  0  0  0  0  0  0
    1.4643    1.5656    0.0000 H   0  0  0  0  0  0  0  0  0  0  0  0
    1.4643   -0.1002    0.0000 H   0  0  0  0  0  0  0  0  0  0  0  0
    7.2641   -2.3873    0.0000 H   0  0  0  0  0  0  0  0  0  0  0  0
    8.6671    0.0427    0.0000 H   0  0  0  0  0  0  0  0  0  0  0  0
    8.6671   -1.5773    0.0000 H   0  0  0  0  0  0  0  0  0  0  0  0
  1  3  2  0  0  0  0
  1  4  1  0  0  0  0
  2  4  1  0  0  0  0
  2  6  1  0  0  0  0
  2  8  2  0  0  0  0
  3  5  1  0  0  0  0
  3  7  1  0  0  0  0
  4  9  2  0  0  0  0
  5 10  2  0  0  0  0
  5 11  1  0  0  0  0
  6  7  2  0  0  0  0
  6 17  1  0  0  0  0
  7 18  1  0  0  0  0
  8 12  1  0  0  0  0
  8 19  1  0  0  0  0
  9 13  1  0  0  0  0
  9 20  1  0  0  0  0
 10 14  1  0  0  0  0
 10 21  1  0  0  0  0
 11 15  2  0  0  0  0
 11 22  1  0  0  0  0
 12 13  2  0  0  0  0
 12 23  1  0  0  0  0
 13 24  1  0  0  0  0
 14 16  2  0  0  0  0
 14 25  1  0  0  0  0
 15 16  1  0  0  0  0
 15 26  1  0  0  0  0
 16 27  1  0  0  0  0
M  CHG  1   1   1
M  END
> <PUBCHEM_COMPOUND_CID>
145858

> <PUBCHEM_COMPOUND_CANONICALIZED>
1

> <PUBCHEM_CACTVS_COMPLEXITY>
219

> <PUBCHEM_CACTVS_HBOND_ACCEPTOR>
0

> <PUBCHEM_CACTVS_HBOND_DONOR>
0

> <PUBCHEM_CACTVS_ROTATABLE_BOND>
1

> <PUBCHEM_CACTVS_SUBSKEYS>
AAADccBwIAAAAAAAAAAAAAAAAAAAAAAAAAA0YIAAAAAAAACR9AAAGgAAAAAADASAmAAwBsAABECIAqBSAAACCAAkIAAIiAEGCMgMJjKENRqCOSCkwBEIqYeIyOCOAAAAAAAIAAAAAAAAABAAAAAAAAAAAA==

> <PUBCHEM_IUPAC_OPENEYE_NAME>
2-phenylchromenylium

> <PUBCHEM_IUPAC_CAS_NAME>
2-phenyl-1-benzopyrylium

> <PUBCHEM_IUPAC_NAME_MARKUP>
2-phenylchromenylium

> <PUBCHEM_IUPAC_NAME>
2-phenylchromenylium

> <PUBCHEM_IUPAC_SYSTEMATIC_NAME>
2-phenylchromenylium

> <PUBCHEM_IUPAC_TRADITIONAL_NAME>
2-phenyl-1-benzopyrylium

> <PUBCHEM_IUPAC_INCHI>
InChI=1S/C15H11O/c1-2-6-12(7-3-1)15-11-10-13-8-4-5-9-14(13)16-15/h1-11H/q+1

> <PUBCHEM_IUPAC_INCHIKEY>
NWKFECICNXDNOQ-UHFFFAOYSA-N

> <PUBCHEM_EXACT_MASS>
207.080989970

> <PUBCHEM_MOLECULAR_FORMULA>
C15H11O+

> <PUBCHEM_MOLECULAR_WEIGHT>
207.25

> <PUBCHEM_SMILES>
C1=CC=C(C=C1)C2=[O+]C3=CC=CC=C3C=C2

> <PUBCHEM_CONNECTIVITY_SMILES>
C1=CC=C(C=C1)C2=[O+]C3=CC=CC=C3C=C2

> <PUBCHEM_CACTVS_TPSA>
1

> <PUBCHEM_MONOISOTOPIC_WEIGHT>
207.080989970

> <PUBCHEM_TOTAL_CHARGE>
1

> <PUBCHEM_HEAVY_ATOM_COUNT>
16

> <PUBCHEM_ATOM_DEF_STEREO_COUNT>
0

> <PUBCHEM_ATOM_UDEF_STEREO_COUNT>
0

> <PUBCHEM_BOND_DEF_STEREO_COUNT>
0

> <PUBCHEM_BOND_UDEF_STEREO_COUNT>
0

> <PUBCHEM_ISOTOPIC_ATOM_COUNT>
0

> <PUBCHEM_COMPONENT_COUNT>
1

> <PUBCHEM_CACTVS_TAUTO_COUNT>
-1

> <PUBCHEM_COORDINATE_TYPE>
1
5
255

> <PUBCHEM_BONDANNOTATIONS>
1  3  8
1  4  8
10  14  8
11  15  8
12  13  8
14  16  8
15  16  8
2  4  8
2  6  8
2  8  8
3  7  8
4  9  8
5  10  8
5  11  8
6  7  8
8  12  8
9  13  8

$$$$
