466076
  -OEChem-01202622262D

 42 43  0     0  0  0  0  0  0999 V2000
    2.5369   -1.9050    0.0000 O   0  0  0  0  0  0  0  0  0  0  0  0
    4.2690   -4.9050    0.0000 O   0  0  0  0  0  0  0  0  0  0  0  0
    6.0010    5.0950    0.0000 O   0  0  0  0  0  0  0  0  0  0  0  0
    4.2690   -0.9050    0.0000 C   0  0  0  0  0  0  0  0  0  0  0  0
    5.1350   -0.4050    0.0000 C   0  0  0  0  0  0  0  0  0  0  0  0
    6.0010    1.0950    0.0000 C   0  0  0  0  0  0  0  0  0  0  0  0
    5.1350    0.5950    0.0000 C   0  0  0  0  0  0  0  0  0  0  0  0
    4.2690   -1.9050    0.0000 C   0  0  0  0  0  0  0  0  0  0  0  0
    6.0010    2.0950    0.0000 C   0  0  0  0  0  0  0  0  0  0  0  0
    3.4030   -2.4050    0.0000 C   0  0  0  0  0  0  0  0  0  0  0  0
    5.1350   -2.4050    0.0000 C   0  0  0  0  0  0  0  0  0  0  0  0
    6.8671    2.5950    0.0000 C   0  0  0  0  0  0  0  0  0  0  0  0
    5.1350    2.5950    0.0000 C   0  0  0  0  0  0  0  0  0  0  0  0
    3.4030   -3.4050    0.0000 C   0  0  0  0  0  0  0  0  0  0  0  0
    5.1350   -3.4050    0.0000 C   0  0  0  0  0  0  0  0  0  0  0  0
    4.2690   -3.9050    0.0000 C   0  0  0  0  0  0  0  0  0  0  0  0
    6.0010   -0.9050    0.0000 C   0  0  0  0  0  0  0  0  0  0  0  0
    4.2690    1.0950    0.0000 C   0  0  0  0  0  0  0  0  0  0  0  0
    6.8671    3.5950    0.0000 C   0  0  0  0  0  0  0  0  0  0  0  0
    5.1350    3.5950    0.0000 C   0  0  0  0  0  0  0  0  0  0  0  0
    6.0010    4.0950    0.0000 C   0  0  0  0  0  0  0  0  0  0  0  0
    5.1350   -5.4050    0.0000 C   0  0  0  0  0  0  0  0  0  0  0  0
    4.0569   -0.3224    0.0000 H   0  0  0  0  0  0  0  0  0  0  0  0
    3.6584   -1.0127    0.0000 H   0  0  0  0  0  0  0  0  0  0  0  0
    6.2131    0.5124    0.0000 H   0  0  0  0  0  0  0  0  0  0  0  0
    6.6116    1.2027    0.0000 H   0  0  0  0  0  0  0  0  0  0  0  0
    5.6720   -2.0950    0.0000 H   0  0  0  0  0  0  0  0  0  0  0  0
    7.4040    2.2850    0.0000 H   0  0  0  0  0  0  0  0  0  0  0  0
    4.5981    2.2850    0.0000 H   0  0  0  0  0  0  0  0  0  0  0  0
    2.8660   -3.7150    0.0000 H   0  0  0  0  0  0  0  0  0  0  0  0
    5.6720   -3.7150    0.0000 H   0  0  0  0  0  0  0  0  0  0  0  0
    6.0010   -1.5250    0.0000 H   0  0  0  0  0  0  0  0  0  0  0  0
    6.5380   -0.5950    0.0000 H   0  0  0  0  0  0  0  0  0  0  0  0
    4.2690    1.7150    0.0000 H   0  0  0  0  0  0  0  0  0  0  0  0
    3.7321    0.7850    0.0000 H   0  0  0  0  0  0  0  0  0  0  0  0
    7.4040    3.9050    0.0000 H   0  0  0  0  0  0  0  0  0  0  0  0
    4.5981    3.9050    0.0000 H   0  0  0  0  0  0  0  0  0  0  0  0
    2.0000   -2.2150    0.0000 H   0  0  0  0  0  0  0  0  0  0  0  0
    4.8250   -5.9419    0.0000 H   0  0  0  0  0  0  0  0  0  0  0  0
    5.6720   -5.7150    0.0000 H   0  0  0  0  0  0  0  0  0  0  0  0
    5.4450   -4.8681    0.0000 H   0  0  0  0  0  0  0  0  0  0  0  0
    6.5380    5.4050    0.0000 H   0  0  0  0  0  0  0  0  0  0  0  0
  1 10  1  0  0  0  0
  1 38  1  0  0  0  0
  2 16  1  0  0  0  0
  2 22  1  0  0  0  0
  3 21  1  0  0  0  0
  3 42  1  0  0  0  0
  4  5  1  0  0  0  0
  4  8  1  0  0  0  0
  4 23  1  0  0  0  0
  4 24  1  0  0  0  0
  5  7  1  0  0  0  0
  5 17  2  0  0  0  0
  6  7  1  0  0  0  0
  6  9  1  0  0  0  0
  6 25  1  0  0  0  0
  6 26  1  0  0  0  0
  7 18  2  0  0  0  0
  8 10  2  0  0  0  0
  8 11  1  0  0  0  0
  9 12  2  0  0  0  0
  9 13  1  0  0  0  0
 10 14  1  0  0  0  0
 11 15  2  0  0  0  0
 11 27  1  0  0  0  0
 12 19  1  0  0  0  0
 12 28  1  0  0  0  0
 13 20  2  0  0  0  0
 13 29  1  0  0  0  0
 14 16  2  0  0  0  0
 14 30  1  0  0  0  0
 15 16  1  0  0  0  0
 15 31  1  0  0  0  0
 17 32  1  0  0  0  0
 17 33  1  0  0  0  0
 18 34  1  0  0  0  0
 18 35  1  0  0  0  0
 19 21  2  0  0  0  0
 19 36  1  0  0  0  0
 20 21  1  0  0  0  0
 20 37  1  0  0  0  0
 22 39  1  0  0  0  0
 22 40  1  0  0  0  0
 22 41  1  0  0  0  0
M  END
> <PUBCHEM_COMPOUND_CID>
466076

> <PUBCHEM_COMPOUND_CANONICALIZED>
1

> <PUBCHEM_CACTVS_COMPLEXITY>
382

> <PUBCHEM_CACTVS_HBOND_ACCEPTOR>
3

> <PUBCHEM_CACTVS_HBOND_DONOR>
2

> <PUBCHEM_CACTVS_ROTATABLE_BOND>
6

> <PUBCHEM_CACTVS_SUBSKEYS>
AAADceB4MAAAAAAAAAAAAAAAAAAAAAAAAAAwYAAAAAAAAAABQAAAGgAACAAADASAmAIyBoAABgCAAiBCAAACCAAgIAAIiAAGCIgMJyKGMRqAcCAlwBUIuAeA4OwOIAAACAAIAABAAAAQABAAAAAAAAAAAA==

> <PUBCHEM_IUPAC_OPENEYE_NAME>
2-[3-[(4-hydroxyphenyl)methyl]-2-methylene-but-3-enyl]-5-methoxy-phenol

> <PUBCHEM_IUPAC_CAS_NAME>
2-[3-[(4-hydroxyphenyl)methyl]-2-methylenebut-3-enyl]-5-methoxyphenol

> <PUBCHEM_IUPAC_NAME_MARKUP>
2-[3-[(4-hydroxyphenyl)methyl]-2-methylidenebut-3-enyl]-5-methoxyphenol

> <PUBCHEM_IUPAC_NAME>
2-[3-[(4-hydroxyphenyl)methyl]-2-methylidenebut-3-enyl]-5-methoxyphenol

> <PUBCHEM_IUPAC_SYSTEMATIC_NAME>
2-[3-[(4-hydroxyphenyl)methyl]-2-methylidene-but-3-enyl]-5-methoxy-phenol

> <PUBCHEM_IUPAC_TRADITIONAL_NAME>
2-[3-(4-hydroxybenzyl)-2-methylene-but-3-enyl]-5-methoxy-phenol

> <PUBCHEM_IUPAC_INCHI>
InChI=1S/C19H20O3/c1-13(10-15-4-7-17(20)8-5-15)14(2)11-16-6-9-18(22-3)12-19(16)21/h4-9,12,20-21H,1-2,10-11H2,3H3

> <PUBCHEM_IUPAC_INCHIKEY>
JFMRBOFPBJLBBF-UHFFFAOYSA-N

> <PUBCHEM_XLOGP3_AA>
5.5

> <PUBCHEM_EXACT_MASS>
296.14124450

> <PUBCHEM_MOLECULAR_FORMULA>
C19H20O3

> <PUBCHEM_MOLECULAR_WEIGHT>
296.4

> <PUBCHEM_SMILES>
COC1=CC(=C(C=C1)CC(=C)C(=C)CC2=CC=C(C=C2)O)O

> <PUBCHEM_CONNECTIVITY_SMILES>
COC1=CC(=C(C=C1)CC(=C)C(=C)CC2=CC=C(C=C2)O)O

> <PUBCHEM_CACTVS_TPSA>
49.7

> <PUBCHEM_MONOISOTOPIC_WEIGHT>
296.14124450

> <PUBCHEM_TOTAL_CHARGE>
0

> <PUBCHEM_HEAVY_ATOM_COUNT>
22

> <PUBCHEM_ATOM_DEF_STEREO_COUNT>
0

> <PUBCHEM_ATOM_UDEF_STEREO_COUNT>
0

> <PUBCHEM_BOND_DEF_STEREO_COUNT>
0

> <PUBCHEM_BOND_UDEF_STEREO_COUNT>
0

> <PUBCHEM_ISOTOPIC_ATOM_COUNT>
0

> <PUBCHEM_COMPONENT_COUNT>
1

> <PUBCHEM_CACTVS_TAUTO_COUNT>
-1

> <PUBCHEM_COORDINATE_TYPE>
1
5
255

> <PUBCHEM_BONDANNOTATIONS>
10  14  8
11  15  8
12  19  8
13  20  8
14  16  8
15  16  8
19  21  8
20  21  8
8  10  8
8  11  8
9  12  8
9  13  8

$$$$
