135926572
  -OEChem-01202622402D

 44 45  0     1  0  0  0  0  0999 V2000
    5.1350   -3.7500    0.0000 O   0  5  0  0  0  0  0  0  0  0  0  0
    6.0010   -5.2500    0.0000 O   0  0  0  0  0  0  0  0  0  0  0  0
    4.2690    4.7500    0.0000 O   0  0  0  0  0  0  0  0  0  0  0  0
   10.3312   -3.7500    0.0000 O   0  5  0  0  0  0  0  0  0  0  0  0
    9.4651   -5.2500    0.0000 O   0  0  0  0  0  0  0  0  0  0  0  0
    2.5369    3.7500    0.0000 O   0  0  0  0  0  0  0  0  0  0  0  0
    7.7331   -4.2500    0.0000 N   0  0  0  0  0  0  0  0  0  0  0  0
    6.8671    0.2500    0.0000 N   0  0  0  0  0  0  0  0  0  0  0  0
    6.8671   -3.7500    0.0000 C   0  0  1  0  0  0  0  0  0  0  0  0
    6.8671   -2.7500    0.0000 C   0  0  0  0  0  0  0  0  0  0  0  0
    7.7331   -2.2500    0.0000 C   0  0  0  0  0  0  0  0  0  0  0  0
    8.5991   -3.7500    0.0000 C   0  0  0  0  0  0  0  0  0  0  0  0
    8.5991   -2.7500    0.0000 C   0  0  0  0  0  0  0  0  0  0  0  0
    7.7331   -1.2500    0.0000 C   0  0  0  0  0  0  0  0  0  0  0  0
    6.0010   -4.2500    0.0000 C   0  0  0  0  0  0  0  0  0  0  0  0
    6.0010    1.7500    0.0000 C   0  0  0  0  0  0  0  0  0  0  0  0
    5.1350    2.2500    0.0000 C   0  0  0  0  0  0  0  0  0  0  0  0
    6.0010    0.7500    0.0000 C   0  0  0  0  0  0  0  0  0  0  0  0
    6.8671   -0.7500    0.0000 C   0  0  0  0  0  0  0  0  0  0  0  0
    9.4651   -4.2500    0.0000 C   0  0  0  0  0  0  0  0  0  0  0  0
    5.1350    3.2500    0.0000 C   0  0  0  0  0  0  0  0  0  0  0  0
    4.2690    1.7500    0.0000 C   0  0  0  0  0  0  0  0  0  0  0  0
    4.2690    3.7500    0.0000 C   0  0  0  0  0  0  0  0  0  0  0  0
    3.4030    2.2500    0.0000 C   0  0  0  0  0  0  0  0  0  0  0  0
    3.4030    3.2500    0.0000 C   0  0  0  0  0  0  0  0  0  0  0  0
    5.1350    5.2500    0.0000 C   0  0  0  0  0  0  0  0  0  0  0  0
    6.8671   -4.3700    0.0000 H   0  0  0  0  0  0  0  0  0  0  0  0
    6.6550   -2.1674    0.0000 H   0  0  0  0  0  0  0  0  0  0  0  0
    6.2565   -2.8577    0.0000 H   0  0  0  0  0  0  0  0  0  0  0  0
    7.7331   -4.8700    0.0000 H   0  0  0  0  0  0  0  0  0  0  0  0
    9.1360   -2.4400    0.0000 H   0  0  0  0  0  0  0  0  0  0  0  0
    8.2700   -0.9400    0.0000 H   0  0  0  0  0  0  0  0  0  0  0  0
    6.6116    1.6423    0.0000 H   0  0  0  0  0  0  0  0  0  0  0  0
    6.2131    2.3326    0.0000 H   0  0  0  0  0  0  0  0  0  0  0  0
    5.3905    0.8577    0.0000 H   0  0  0  0  0  0  0  0  0  0  0  0
    5.7890    0.1674    0.0000 H   0  0  0  0  0  0  0  0  0  0  0  0
    6.3301   -1.0600    0.0000 H   0  0  0  0  0  0  0  0  0  0  0  0
    5.6720    3.5600    0.0000 H   0  0  0  0  0  0  0  0  0  0  0  0
    4.2690    1.1300    0.0000 H   0  0  0  0  0  0  0  0  0  0  0  0
    2.8660    1.9400    0.0000 H   0  0  0  0  0  0  0  0  0  0  0  0
    2.0000    3.4400    0.0000 H   0  0  0  0  0  0  0  0  0  0  0  0
    5.4450    4.7131    0.0000 H   0  0  0  0  0  0  0  0  0  0  0  0
    5.6720    5.5600    0.0000 H   0  0  0  0  0  0  0  0  0  0  0  0
    4.8250    5.7869    0.0000 H   0  0  0  0  0  0  0  0  0  0  0  0
  1 15  1  0  0  0  0
  2 15  2  0  0  0  0
  3 23  1  0  0  0  0
  3 26  1  0  0  0  0
  4 20  1  0  0  0  0
  5 20  2  0  0  0  0
  6 25  1  0  0  0  0
  6 41  1  0  0  0  0
  7  9  1  0  0  0  0
  7 12  1  0  0  0  0
  7 30  1  0  0  0  0
  8 18  1  0  0  0  0
  8 19  2  0  0  0  0
  9 10  1  0  0  0  0
  9 15  1  6  0  0  0
  9 27  1  0  0  0  0
 10 11  1  0  0  0  0
 10 28  1  0  0  0  0
 10 29  1  0  0  0  0
 11 13  1  0  0  0  0
 11 14  2  0  0  0  0
 12 13  2  0  0  0  0
 12 20  1  0  0  0  0
 13 31  1  0  0  0  0
 14 19  1  0  0  0  0
 14 32  1  0  0  0  0
 16 17  1  0  0  0  0
 16 18  1  0  0  0  0
 16 33  1  0  0  0  0
 16 34  1  0  0  0  0
 17 21  2  0  0  0  0
 17 22  1  0  0  0  0
 18 35  1  0  0  0  0
 18 36  1  0  0  0  0
 19 37  1  0  0  0  0
 21 23  1  0  0  0  0
 21 38  1  0  0  0  0
 22 24  2  0  0  0  0
 22 39  1  0  0  0  0
 23 25  2  0  0  0  0
 24 25  1  0  0  0  0
 24 40  1  0  0  0  0
 26 42  1  0  0  0  0
 26 43  1  0  0  0  0
 26 44  1  0  0  0  0
M  CHG  2   1  -1   4  -1
M  END
> <PUBCHEM_COMPOUND_CID>
135926572

> <PUBCHEM_COMPOUND_CANONICALIZED>
1

> <PUBCHEM_CACTVS_COMPLEXITY>
602

> <PUBCHEM_CACTVS_HBOND_ACCEPTOR>
8

> <PUBCHEM_CACTVS_HBOND_DONOR>
2

> <PUBCHEM_CACTVS_ROTATABLE_BOND>
5

> <PUBCHEM_CACTVS_SUBSKEYS>
AAADceB7OAAAAAAAAAAAAAAAAAAAAAAAAAAwQAAAAAAAAAABAAAAHgAQCAAADCzBmAYyDoLABgCoAjTzTAACCAAgIgAIiIGeiNgPJjKGsTuEcCMk0BGbuYeY0LAOIAABAAAAQABAAAIAAACAAAAAAAAAAA==

> <PUBCHEM_IUPAC_OPENEYE_NAME>
(2S,4E)-4-[2-[2-(4-hydroxy-3-methoxy-phenyl)ethylimino]ethylidene]-2,3-dihydro-1H-pyridine-2,6-dicarboxylate

> <PUBCHEM_IUPAC_CAS_NAME>
(2S,4E)-4-[2-[2-(4-hydroxy-3-methoxyphenyl)ethylimino]ethylidene]-2,3-dihydro-1H-pyridine-2,6-dicarboxylate

> <PUBCHEM_IUPAC_NAME_MARKUP>
(2<I>S</I>,4<I>E</I>)-4-[2-[2-(4-hydroxy-3-methoxyphenyl)ethylimino]ethylidene]-2,3-dihydro-1<I>H</I>-pyridine-2,6-dicarboxylate

> <PUBCHEM_IUPAC_NAME>
(2S,4E)-4-[2-[2-(4-hydroxy-3-methoxyphenyl)ethylimino]ethylidene]-2,3-dihydro-1H-pyridine-2,6-dicarboxylate

> <PUBCHEM_IUPAC_SYSTEMATIC_NAME>
(2S,4E)-4-[2-[2-(3-methoxy-4-oxidanyl-phenyl)ethylimino]ethylidene]-2,3-dihydro-1H-pyridine-2,6-dicarboxylate

> <PUBCHEM_IUPAC_TRADITIONAL_NAME>
(2S,4E)-4-(2-homovanillyliminoethylidene)-2,3-dihydro-1H-pyridine-2,6-dicarboxylate

> <PUBCHEM_IUPAC_INCHI>
InChI=1S/C18H20N2O6/c1-26-16-10-11(2-3-15(16)21)4-6-19-7-5-12-8-13(17(22)23)20-14(9-12)18(24)25/h2-3,5,7-8,10,14,20-21H,4,6,9H2,1H3,(H,22,23)(H,24,25)/p-2/b12-5-,19-7?/t14-/m0/s1

> <PUBCHEM_IUPAC_INCHIKEY>
SBHOSQZNRDXQAX-RSCAPTSMSA-L

> <PUBCHEM_XLOGP3_AA>
2.7

> <PUBCHEM_EXACT_MASS>
358.11648630

> <PUBCHEM_MOLECULAR_FORMULA>
C18H18N2O6-2

> <PUBCHEM_MOLECULAR_WEIGHT>
358.3

> <PUBCHEM_SMILES>
COC1=C(C=CC(=C1)CCN=C/C=C/2\C[C@H](NC(=C2)C(=O)[O-])C(=O)[O-])O

> <PUBCHEM_CONNECTIVITY_SMILES>
COC1=C(C=CC(=C1)CCN=CC=C2CC(NC(=C2)C(=O)[O-])C(=O)[O-])O

> <PUBCHEM_CACTVS_TPSA>
134

> <PUBCHEM_MONOISOTOPIC_WEIGHT>
358.11648630

> <PUBCHEM_TOTAL_CHARGE>
-2

> <PUBCHEM_HEAVY_ATOM_COUNT>
26

> <PUBCHEM_ATOM_DEF_STEREO_COUNT>
1

> <PUBCHEM_ATOM_UDEF_STEREO_COUNT>
0

> <PUBCHEM_BOND_DEF_STEREO_COUNT>
1

> <PUBCHEM_BOND_UDEF_STEREO_COUNT>
0

> <PUBCHEM_ISOTOPIC_ATOM_COUNT>
0

> <PUBCHEM_COMPONENT_COUNT>
1

> <PUBCHEM_CACTVS_TAUTO_COUNT>
-1

> <PUBCHEM_COORDINATE_TYPE>
1
5
255

> <PUBCHEM_BONDANNOTATIONS>
17  21  8
17  22  8
21  23  8
22  24  8
23  25  8
24  25  8
9  15  6

$$$$
