943
  -OEChem-01202622072D

  4  3  0     0  0  0  0  0  0999 V2000
    2.0000    0.7500    0.0000 O   0  5  0  0  0  0  0  0  0  0  0  0
    2.8660   -0.7500    0.0000 O   0  5  0  0  0  0  0  0  0  0  0  0
    3.7321    0.7500    0.0000 O   0  0  0  0  0  0  0  0  0  0  0  0
    2.8660    0.2500    0.0000 N   0  3  0  0  0  0  0  0  0  0  0  0
  1  4  1  0  0  0  0
  2  4  1  0  0  0  0
  3  4  2  0  0  0  0
M  CHG  3   1  -1   2  -1   4   1
M  END
> <PUBCHEM_COMPOUND_CID>
943

> <PUBCHEM_COMPOUND_CANONICALIZED>
1

> <PUBCHEM_CACTVS_COMPLEXITY>
18.8

> <PUBCHEM_CACTVS_HBOND_ACCEPTOR>
3

> <PUBCHEM_CACTVS_HBOND_DONOR>
0

> <PUBCHEM_CACTVS_ROTATABLE_BOND>
0

> <PUBCHEM_CACTVS_SUBSKEYS>
AAADcQACMAAAAAAAAAAAAAAAAAAAAAAAAAAAAAAAAAAAAAAAAAAAAAAEAAAAAAAAAAAAAAAAQAABAAAAAQAAAAAAAAAAAAAAAAAAAAAAAAAAAAAAAAAAAAAAAAAAAAAAAAAAAAAAAAAAAAAAAAAAAAAAAA==

> <PUBCHEM_IUPAC_OPENEYE_NAME>
nitrate

> <PUBCHEM_IUPAC_CAS_NAME>
nitrate

> <PUBCHEM_IUPAC_NAME_MARKUP>
nitrate

> <PUBCHEM_IUPAC_NAME>
nitrate

> <PUBCHEM_IUPAC_SYSTEMATIC_NAME>
nitrate

> <PUBCHEM_IUPAC_TRADITIONAL_NAME>
nitrate

> <PUBCHEM_IUPAC_INCHI>
InChI=1S/NO3/c2-1(3)4/q-1

> <PUBCHEM_IUPAC_INCHIKEY>
NHNBFGGVMKEFGY-UHFFFAOYSA-N

> <PUBCHEM_XLOGP3_AA>
-1.4

> <PUBCHEM_EXACT_MASS>
61.987817862

> <PUBCHEM_MOLECULAR_FORMULA>
NO3-

> <PUBCHEM_MOLECULAR_WEIGHT>
62.005

> <PUBCHEM_SMILES>
[N+](=O)([O-])[O-]

> <PUBCHEM_CONNECTIVITY_SMILES>
[N+](=O)([O-])[O-]

> <PUBCHEM_CACTVS_TPSA>
62.9

> <PUBCHEM_MONOISOTOPIC_WEIGHT>
61.987817862

> <PUBCHEM_TOTAL_CHARGE>
-1

> <PUBCHEM_HEAVY_ATOM_COUNT>
4

> <PUBCHEM_ATOM_DEF_STEREO_COUNT>
0

> <PUBCHEM_ATOM_UDEF_STEREO_COUNT>
0

> <PUBCHEM_BOND_DEF_STEREO_COUNT>
0

> <PUBCHEM_BOND_UDEF_STEREO_COUNT>
0

> <PUBCHEM_ISOTOPIC_ATOM_COUNT>
0

> <PUBCHEM_COMPONENT_COUNT>
1

> <PUBCHEM_CACTVS_TAUTO_COUNT>
-1

> <PUBCHEM_COORDINATE_TYPE>
1
5
255

$$$$
