9975970
  -OEChem-01202622352D

 56 58  0     0  0  0  0  0  0999 V2000
    9.3148   -1.9101    0.0000 O   0  0  0  0  0  0  0  0  0  0  0  0
    2.3053   -1.9101    0.0000 O   0  0  0  0  0  0  0  0  0  0  0  0
    5.8101   -0.9976    0.0000 N   0  0  0  0  0  0  0  0  0  0  0  0
    6.6191   -1.5854    0.0000 C   0  0  0  0  0  0  0  0  0  0  0  0
    6.3101   -2.5364    0.0000 C   0  0  0  0  0  0  0  0  0  0  0  0
    5.3101   -2.5364    0.0000 C   0  0  0  0  0  0  0  0  0  0  0  0
    7.6345   -1.3531    0.0000 C   0  0  0  0  0  0  0  0  0  0  0  0
    5.0010   -1.5854    0.0000 C   0  0  0  0  0  0  0  0  0  0  0  0
    7.9325   -0.3985    0.0000 C   0  0  0  0  0  0  0  0  0  0  0  0
    6.9950   -3.3211    0.0000 C   0  0  0  0  0  0  0  0  0  0  0  0
    4.6251   -3.3211    0.0000 C   0  0  0  0  0  0  0  0  0  0  0  0
    8.3374   -2.1218    0.0000 C   0  0  0  0  0  0  0  0  0  0  0  0
    3.9856   -1.3531    0.0000 C   0  0  0  0  0  0  0  0  0  0  0  0
    3.6046   -3.1124    0.0000 C   0  0  0  0  0  0  0  0  0  0  0  0
    8.0155   -3.1124    0.0000 C   0  0  0  0  0  0  0  0  0  0  0  0
    3.2827   -2.1218    0.0000 C   0  0  0  0  0  0  0  0  0  0  0  0
    8.9081   -0.1793    0.0000 C   0  0  0  0  0  0  0  0  0  0  0  0
    9.2061    0.7752    0.0000 C   0  0  0  0  0  0  0  0  0  0  0  0
   10.1818    0.9945    0.0000 C   0  0  0  0  0  0  0  0  0  0  0  0
   10.4798    1.9490    0.0000 C   0  0  0  0  0  0  0  0  0  0  0  0
    2.9383   -3.8582    0.0000 C   0  0  0  0  0  0  0  0  0  0  0  0
    8.5285    1.5106    0.0000 C   0  0  0  0  0  0  0  0  0  0  0  0
   11.4555    2.1682    0.0000 C   0  0  0  0  0  0  0  0  0  0  0  0
   11.7535    3.1228    0.0000 C   0  0  0  0  0  0  0  0  0  0  0  0
    2.0000   -0.9579    0.0000 C   0  0  0  0  0  0  0  0  0  0  0  0
   12.7292    3.3420    0.0000 C   0  0  0  0  0  0  0  0  0  0  0  0
   11.0758    3.8582    0.0000 C   0  0  0  0  0  0  0  0  0  0  0  0
    5.8101   -0.3776    0.0000 H   0  0  0  0  0  0  0  0  0  0  0  0
    7.9037    0.2208    0.0000 H   0  0  0  0  0  0  0  0  0  0  0  0
    7.3176   -0.3193    0.0000 H   0  0  0  0  0  0  0  0  0  0  0  0
    6.7966   -3.9085    0.0000 H   0  0  0  0  0  0  0  0  0  0  0  0
    4.8235   -3.9085    0.0000 H   0  0  0  0  0  0  0  0  0  0  0  0
    3.8009   -0.7613    0.0000 H   0  0  0  0  0  0  0  0  0  0  0  0
    8.4286   -3.5748    0.0000 H   0  0  0  0  0  0  0  0  0  0  0  0
    9.3283   -0.6352    0.0000 H   0  0  0  0  0  0  0  0  0  0  0  0
   10.2106    0.3751    0.0000 H   0  0  0  0  0  0  0  0  0  0  0  0
   10.7967    0.9153    0.0000 H   0  0  0  0  0  0  0  0  0  0  0  0
   10.4510    2.5684    0.0000 H   0  0  0  0  0  0  0  0  0  0  0  0
    9.8649    2.0282    0.0000 H   0  0  0  0  0  0  0  0  0  0  0  0
    2.4760   -3.4451    0.0000 H   0  0  0  0  0  0  0  0  0  0  0  0
    2.5252   -4.3205    0.0000 H   0  0  0  0  0  0  0  0  0  0  0  0
    3.4006   -4.2712    0.0000 H   0  0  0  0  0  0  0  0  0  0  0  0
    8.9844    1.9308    0.0000 H   0  0  0  0  0  0  0  0  0  0  0  0
    8.1083    1.9665    0.0000 H   0  0  0  0  0  0  0  0  0  0  0  0
    8.0726    1.0904    0.0000 H   0  0  0  0  0  0  0  0  0  0  0  0
    9.7314   -2.3692    0.0000 H   0  0  0  0  0  0  0  0  0  0  0  0
   11.8757    1.7123    0.0000 H   0  0  0  0  0  0  0  0  0  0  0  0
    2.5904   -0.7685    0.0000 H   0  0  0  0  0  0  0  0  0  0  0  0
    1.8107   -0.3675    0.0000 H   0  0  0  0  0  0  0  0  0  0  0  0
    1.4096   -1.1472    0.0000 H   0  0  0  0  0  0  0  0  0  0  0  0
   12.8651    2.7371    0.0000 H   0  0  0  0  0  0  0  0  0  0  0  0
   13.3341    3.4779    0.0000 H   0  0  0  0  0  0  0  0  0  0  0  0
   12.5933    3.9469    0.0000 H   0  0  0  0  0  0  0  0  0  0  0  0
   11.5317    4.2783    0.0000 H   0  0  0  0  0  0  0  0  0  0  0  0
   10.6557    4.3141    0.0000 H   0  0  0  0  0  0  0  0  0  0  0  0
   10.6199    3.4380    0.0000 H   0  0  0  0  0  0  0  0  0  0  0  0
  1 12  1  0  0  0  0
  1 46  1  0  0  0  0
  2 16  1  0  0  0  0
  2 25  1  0  0  0  0
  3  4  1  0  0  0  0
  3  8  1  0  0  0  0
  3 28  1  0  0  0  0
  4  5  2  0  0  0  0
  4  7  1  0  0  0  0
  5  6  1  0  0  0  0
  5 10  1  0  0  0  0
  6  8  2  0  0  0  0
  6 11  1  0  0  0  0
  7  9  1  0  0  0  0
  7 12  2  0  0  0  0
  8 13  1  0  0  0  0
  9 17  1  0  0  0  0
  9 29  1  0  0  0  0
  9 30  1  0  0  0  0
 10 15  2  0  0  0  0
 10 31  1  0  0  0  0
 11 14  2  0  0  0  0
 11 32  1  0  0  0  0
 12 15  1  0  0  0  0
 13 16  2  0  0  0  0
 13 33  1  0  0  0  0
 14 16  1  0  0  0  0
 14 21  1  0  0  0  0
 15 34  1  0  0  0  0
 17 18  2  0  0  0  0
 17 35  1  0  0  0  0
 18 19  1  0  0  0  0
 18 22  1  0  0  0  0
 19 20  1  0  0  0  0
 19 36  1  0  0  0  0
 19 37  1  0  0  0  0
 20 23  1  0  0  0  0
 20 38  1  0  0  0  0
 20 39  1  0  0  0  0
 21 40  1  0  0  0  0
 21 41  1  0  0  0  0
 21 42  1  0  0  0  0
 22 43  1  0  0  0  0
 22 44  1  0  0  0  0
 22 45  1  0  0  0  0
 23 24  2  0  0  0  0
 23 47  1  0  0  0  0
 24 26  1  0  0  0  0
 24 27  1  0  0  0  0
 25 48  1  0  0  0  0
 25 49  1  0  0  0  0
 25 50  1  0  0  0  0
 26 51  1  0  0  0  0
 26 52  1  0  0  0  0
 26 53  1  0  0  0  0
 27 54  1  0  0  0  0
 27 55  1  0  0  0  0
 27 56  1  0  0  0  0
M  END
> <PUBCHEM_COMPOUND_CID>
9975970

> <PUBCHEM_COMPOUND_CANONICALIZED>
1

> <PUBCHEM_CACTVS_COMPLEXITY>
551

> <PUBCHEM_CACTVS_HBOND_ACCEPTOR>
2

> <PUBCHEM_CACTVS_HBOND_DONOR>
2

> <PUBCHEM_CACTVS_ROTATABLE_BOND>
6

> <PUBCHEM_CACTVS_SUBSKEYS>
AAADceB6MAAAAAAAAAAAAAAAAAAAAWAAAAAwYAAAAAAAAFgB/AAAHgAQCAAADAyBngIyxvLJlgCgAyRiRACCiCAhIiAImSA2bJgMJuLGsZuEcChm0BnI+AeQ0PMOqAACAgAKAABQAAQEABQAAAAAAAAAAA==

> <PUBCHEM_IUPAC_OPENEYE_NAME>
1-[(2E)-3,7-dimethylocta-2,6-dienyl]-7-methoxy-6-methyl-9H-carbazol-2-ol

> <PUBCHEM_IUPAC_CAS_NAME>
1-[(2E)-3,7-dimethylocta-2,6-dienyl]-7-methoxy-6-methyl-9H-carbazol-2-ol

> <PUBCHEM_IUPAC_NAME_MARKUP>
1-[(2<I>E</I>)-3,7-dimethylocta-2,6-dienyl]-7-methoxy-6-methyl-9<I>H</I>-carbazol-2-ol

> <PUBCHEM_IUPAC_NAME>
1-[(2E)-3,7-dimethylocta-2,6-dienyl]-7-methoxy-6-methyl-9H-carbazol-2-ol

> <PUBCHEM_IUPAC_SYSTEMATIC_NAME>
1-[(2E)-3,7-dimethylocta-2,6-dienyl]-7-methoxy-6-methyl-9H-carbazol-2-ol

> <PUBCHEM_IUPAC_TRADITIONAL_NAME>
1-[(2E)-3,7-dimethylocta-2,6-dienyl]-7-methoxy-6-methyl-9H-carbazol-2-ol

> <PUBCHEM_IUPAC_INCHI>
InChI=1S/C24H29NO2/c1-15(2)7-6-8-16(3)9-10-19-22(26)12-11-18-20-13-17(4)23(27-5)14-21(20)25-24(18)19/h7,9,11-14,25-26H,6,8,10H2,1-5H3/b16-9+

> <PUBCHEM_IUPAC_INCHIKEY>
RTEIBQDXHHQYRJ-CXUHLZMHSA-N

> <PUBCHEM_XLOGP3_AA>
7.2

> <PUBCHEM_EXACT_MASS>
363.219829168

> <PUBCHEM_MOLECULAR_FORMULA>
C24H29NO2

> <PUBCHEM_MOLECULAR_WEIGHT>
363.5

> <PUBCHEM_SMILES>
CC1=CC2=C(C=C1OC)NC3=C2C=CC(=C3C/C=C(\C)/CCC=C(C)C)O

> <PUBCHEM_CONNECTIVITY_SMILES>
CC1=CC2=C(C=C1OC)NC3=C2C=CC(=C3CC=C(C)CCC=C(C)C)O

> <PUBCHEM_CACTVS_TPSA>
45.3

> <PUBCHEM_MONOISOTOPIC_WEIGHT>
363.219829168

> <PUBCHEM_TOTAL_CHARGE>
0

> <PUBCHEM_HEAVY_ATOM_COUNT>
27

> <PUBCHEM_ATOM_DEF_STEREO_COUNT>
0

> <PUBCHEM_ATOM_UDEF_STEREO_COUNT>
0

> <PUBCHEM_BOND_DEF_STEREO_COUNT>
1

> <PUBCHEM_BOND_UDEF_STEREO_COUNT>
0

> <PUBCHEM_ISOTOPIC_ATOM_COUNT>
0

> <PUBCHEM_COMPONENT_COUNT>
1

> <PUBCHEM_CACTVS_TAUTO_COUNT>
-1

> <PUBCHEM_COORDINATE_TYPE>
1
5
255

> <PUBCHEM_BONDANNOTATIONS>
10  15  8
11  14  8
12  15  8
13  16  8
14  16  8
3  4  8
3  8  8
4  5  8
4  7  8
5  10  8
5  6  8
6  11  8
6  8  8
7  12  8
8  13  8

$$$$
