5317593
  -OEChem-01202622322D

 46 47  0     0  0  0  0  0  0999 V2000
    4.2690    5.6550    0.0000 O   0  0  0  0  0  0  0  0  0  0  0  0
    7.7331    1.6550    0.0000 O   0  0  0  0  0  0  0  0  0  0  0  0
    2.5369    4.6550    0.0000 O   0  0  0  0  0  0  0  0  0  0  0  0
    8.5991   -5.8450    0.0000 O   0  0  0  0  0  0  0  0  0  0  0  0
    6.0010    2.6550    0.0000 C   0  0  0  0  0  0  0  0  0  0  0  0
    6.0010    1.6550    0.0000 C   0  0  0  0  0  0  0  0  0  0  0  0
    5.1350    3.1550    0.0000 C   0  0  0  0  0  0  0  0  0  0  0  0
    8.5991   -1.8450    0.0000 C   0  0  0  0  0  0  0  0  0  0  0  0
    7.7331   -1.3450    0.0000 C   0  0  0  0  0  0  0  0  0  0  0  0
    8.5991   -2.8450    0.0000 C   0  0  0  0  0  0  0  0  0  0  0  0
    6.8671    1.1550    0.0000 C   0  0  0  0  0  0  0  0  0  0  0  0
    7.7331   -0.3450    0.0000 C   0  0  0  0  0  0  0  0  0  0  0  0
    5.1350    4.1550    0.0000 C   0  0  0  0  0  0  0  0  0  0  0  0
    4.2690    2.6550    0.0000 C   0  0  0  0  0  0  0  0  0  0  0  0
    6.8671    0.1550    0.0000 C   0  0  0  0  0  0  0  0  0  0  0  0
    4.2690    4.6550    0.0000 C   0  0  0  0  0  0  0  0  0  0  0  0
    7.7331   -3.3450    0.0000 C   0  0  0  0  0  0  0  0  0  0  0  0
    9.4651   -3.3450    0.0000 C   0  0  0  0  0  0  0  0  0  0  0  0
    3.4030    3.1550    0.0000 C   0  0  0  0  0  0  0  0  0  0  0  0
    3.4030    4.1550    0.0000 C   0  0  0  0  0  0  0  0  0  0  0  0
    7.7331   -4.3450    0.0000 C   0  0  0  0  0  0  0  0  0  0  0  0
    9.4651   -4.3450    0.0000 C   0  0  0  0  0  0  0  0  0  0  0  0
    8.5991   -4.8450    0.0000 C   0  0  0  0  0  0  0  0  0  0  0  0
    5.1350    6.1550    0.0000 C   0  0  0  0  0  0  0  0  0  0  0  0
    6.6116    2.5473    0.0000 H   0  0  0  0  0  0  0  0  0  0  0  0
    6.2131    3.2376    0.0000 H   0  0  0  0  0  0  0  0  0  0  0  0
    5.3905    1.7627    0.0000 H   0  0  0  0  0  0  0  0  0  0  0  0
    5.7890    1.0724    0.0000 H   0  0  0  0  0  0  0  0  0  0  0  0
    9.2097   -1.9527    0.0000 H   0  0  0  0  0  0  0  0  0  0  0  0
    8.8112   -1.2624    0.0000 H   0  0  0  0  0  0  0  0  0  0  0  0
    7.1225   -1.2373    0.0000 H   0  0  0  0  0  0  0  0  0  0  0  0
    7.5210   -1.9276    0.0000 H   0  0  0  0  0  0  0  0  0  0  0  0
    8.2700   -0.0350    0.0000 H   0  0  0  0  0  0  0  0  0  0  0  0
    5.6720    4.4650    0.0000 H   0  0  0  0  0  0  0  0  0  0  0  0
    4.2690    2.0350    0.0000 H   0  0  0  0  0  0  0  0  0  0  0  0
    6.3301   -0.1550    0.0000 H   0  0  0  0  0  0  0  0  0  0  0  0
    7.1962   -3.0350    0.0000 H   0  0  0  0  0  0  0  0  0  0  0  0
   10.0021   -3.0350    0.0000 H   0  0  0  0  0  0  0  0  0  0  0  0
    2.8660    2.8450    0.0000 H   0  0  0  0  0  0  0  0  0  0  0  0
    7.1962   -4.6550    0.0000 H   0  0  0  0  0  0  0  0  0  0  0  0
   10.0021   -4.6550    0.0000 H   0  0  0  0  0  0  0  0  0  0  0  0
    2.0000    4.3450    0.0000 H   0  0  0  0  0  0  0  0  0  0  0  0
    5.4450    5.6181    0.0000 H   0  0  0  0  0  0  0  0  0  0  0  0
    5.6720    6.4650    0.0000 H   0  0  0  0  0  0  0  0  0  0  0  0
    4.8250    6.6919    0.0000 H   0  0  0  0  0  0  0  0  0  0  0  0
    9.1361   -6.1550    0.0000 H   0  0  0  0  0  0  0  0  0  0  0  0
  1 16  1  0  0  0  0
  1 24  1  0  0  0  0
  2 11  2  0  0  0  0
  3 20  1  0  0  0  0
  3 42  1  0  0  0  0
  4 23  1  0  0  0  0
  4 46  1  0  0  0  0
  5  6  1  0  0  0  0
  5  7  1  0  0  0  0
  5 25  1  0  0  0  0
  5 26  1  0  0  0  0
  6 11  1  0  0  0  0
  6 27  1  0  0  0  0
  6 28  1  0  0  0  0
  7 13  2  0  0  0  0
  7 14  1  0  0  0  0
  8  9  1  0  0  0  0
  8 10  1  0  0  0  0
  8 29  1  0  0  0  0
  8 30  1  0  0  0  0
  9 12  1  0  0  0  0
  9 31  1  0  0  0  0
  9 32  1  0  0  0  0
 10 17  2  0  0  0  0
 10 18  1  0  0  0  0
 11 15  1  0  0  0  0
 12 15  2  0  0  0  0
 12 33  1  0  0  0  0
 13 16  1  0  0  0  0
 13 34  1  0  0  0  0
 14 19  2  0  0  0  0
 14 35  1  0  0  0  0
 15 36  1  0  0  0  0
 16 20  2  0  0  0  0
 17 21  1  0  0  0  0
 17 37  1  0  0  0  0
 18 22  2  0  0  0  0
 18 38  1  0  0  0  0
 19 20  1  0  0  0  0
 19 39  1  0  0  0  0
 21 23  2  0  0  0  0
 21 40  1  0  0  0  0
 22 23  1  0  0  0  0
 22 41  1  0  0  0  0
 24 43  1  0  0  0  0
 24 44  1  0  0  0  0
 24 45  1  0  0  0  0
M  END
> <PUBCHEM_COMPOUND_CID>
5317593

> <PUBCHEM_COMPOUND_CANONICALIZED>
1

> <PUBCHEM_CACTVS_COMPLEXITY>
398

> <PUBCHEM_CACTVS_HBOND_ACCEPTOR>
4

> <PUBCHEM_CACTVS_HBOND_DONOR>
2

> <PUBCHEM_CACTVS_ROTATABLE_BOND>
8

> <PUBCHEM_CACTVS_SUBSKEYS>
AAADceB4OAAAAAAAAAAAAAAAAAAAAAAAAAAwYAAAAAAAAAABQAAAGgAACAAADASAmAIyBoAABgCIAqBSAAACCAAgIAAIiAEGiMgNJjKGMRqAcCMkwBELuYeIyLCOIAABAAAAQABAAAIAAACAAAAAAAAAAA==

> <PUBCHEM_IUPAC_OPENEYE_NAME>
(E)-1-(4-hydroxy-3-methoxy-phenyl)-7-(4-hydroxyphenyl)hept-4-en-3-one

> <PUBCHEM_IUPAC_CAS_NAME>
(E)-1-(4-hydroxy-3-methoxyphenyl)-7-(4-hydroxyphenyl)-4-hepten-3-one

> <PUBCHEM_IUPAC_NAME_MARKUP>
(<I>E</I>)-1-(4-hydroxy-3-methoxyphenyl)-7-(4-hydroxyphenyl)hept-4-en-3-one

> <PUBCHEM_IUPAC_NAME>
(E)-1-(4-hydroxy-3-methoxyphenyl)-7-(4-hydroxyphenyl)hept-4-en-3-one

> <PUBCHEM_IUPAC_SYSTEMATIC_NAME>
(E)-7-(4-hydroxyphenyl)-1-(3-methoxy-4-oxidanyl-phenyl)hept-4-en-3-one

> <PUBCHEM_IUPAC_TRADITIONAL_NAME>
(E)-1-(4-hydroxy-3-methoxy-phenyl)-7-(4-hydroxyphenyl)hept-4-en-3-one

> <PUBCHEM_IUPAC_INCHI>
InChI=1S/C20H22O4/c1-24-20-14-16(9-13-19(20)23)8-12-17(21)5-3-2-4-15-6-10-18(22)11-7-15/h3,5-7,9-11,13-14,22-23H,2,4,8,12H2,1H3/b5-3+

> <PUBCHEM_IUPAC_INCHIKEY>
JYHZFCAVESZNKO-HWKANZROSA-N

> <PUBCHEM_XLOGP3_AA>
3.8

> <PUBCHEM_EXACT_MASS>
326.15180918

> <PUBCHEM_MOLECULAR_FORMULA>
C20H22O4

> <PUBCHEM_MOLECULAR_WEIGHT>
326.4

> <PUBCHEM_SMILES>
COC1=C(C=CC(=C1)CCC(=O)/C=C/CCC2=CC=C(C=C2)O)O

> <PUBCHEM_CONNECTIVITY_SMILES>
COC1=C(C=CC(=C1)CCC(=O)C=CCCC2=CC=C(C=C2)O)O

> <PUBCHEM_CACTVS_TPSA>
66.8

> <PUBCHEM_MONOISOTOPIC_WEIGHT>
326.15180918

> <PUBCHEM_TOTAL_CHARGE>
0

> <PUBCHEM_HEAVY_ATOM_COUNT>
24

> <PUBCHEM_ATOM_DEF_STEREO_COUNT>
0

> <PUBCHEM_ATOM_UDEF_STEREO_COUNT>
0

> <PUBCHEM_BOND_DEF_STEREO_COUNT>
1

> <PUBCHEM_BOND_UDEF_STEREO_COUNT>
0

> <PUBCHEM_ISOTOPIC_ATOM_COUNT>
0

> <PUBCHEM_COMPONENT_COUNT>
1

> <PUBCHEM_CACTVS_TAUTO_COUNT>
-1

> <PUBCHEM_COORDINATE_TYPE>
1
5
255

> <PUBCHEM_BONDANNOTATIONS>
10  17  8
10  18  8
13  16  8
14  19  8
16  20  8
17  21  8
18  22  8
19  20  8
21  23  8
22  23  8
7  13  8
7  14  8

$$$$
