136828302
  -OEChem-01202622412D

 40 43  0     0  0  0  0  0  0999 V2000
    2.7493   -0.1257    0.0000 O   0  0  0  0  0  0  0  0  0  0  0  0
    4.8717    3.2753    0.0000 O   0  0  0  0  0  0  0  0  0  0  0  0
    5.6808   -1.3125    0.0000 N   0  0  0  0  0  0  0  0  0  0  0  0
    5.3717   -2.2636    0.0000 N   0  0  0  0  0  0  0  0  0  0  0  0
    6.6962   -1.0802    0.0000 C   0  0  0  0  0  0  0  0  0  0  0  0
    6.0567   -3.0483    0.0000 C   0  0  0  0  0  0  0  0  0  0  0  0
    7.3991   -1.8489    0.0000 C   0  0  0  0  0  0  0  0  0  0  0  0
    7.0772   -2.8396    0.0000 C   0  0  0  0  0  0  0  0  0  0  0  0
    4.8717   -0.7247    0.0000 C   0  0  0  0  0  0  0  0  0  0  0  0
    4.3717   -2.2636    0.0000 C   0  0  0  0  0  0  0  0  0  0  0  0
    4.0627   -1.3125    0.0000 C   0  0  0  0  0  0  0  0  0  0  0  0
    3.6868   -3.0483    0.0000 C   0  0  0  0  0  0  0  0  0  0  0  0
    4.8717    0.2753    0.0000 C   0  0  0  0  0  0  0  0  0  0  0  0
    3.0473   -1.0802    0.0000 C   0  0  0  0  0  0  0  0  0  0  0  0
    2.6663   -2.8396    0.0000 C   0  0  0  0  0  0  0  0  0  0  0  0
    2.3444   -1.8489    0.0000 C   0  0  0  0  0  0  0  0  0  0  0  0
    4.0057    0.7753    0.0000 C   0  0  0  0  0  0  0  0  0  0  0  0
    5.7378    0.7753    0.0000 C   0  0  0  0  0  0  0  0  0  0  0  0
    2.0000   -3.5853    0.0000 C   0  0  0  0  0  0  0  0  0  0  0  0
    4.0057    1.7753    0.0000 C   0  0  0  0  0  0  0  0  0  0  0  0
    5.7378    1.7753    0.0000 C   0  0  0  0  0  0  0  0  0  0  0  0
    4.8717    2.2753    0.0000 C   0  0  0  0  0  0  0  0  0  0  0  0
    7.2186   -0.7463    0.0000 H   0  0  0  0  0  0  0  0  0  0  0  0
    6.4565   -0.5084    0.0000 H   0  0  0  0  0  0  0  0  0  0  0  0
    5.5267   -3.3701    0.0000 H   0  0  0  0  0  0  0  0  0  0  0  0
    6.2830   -3.6255    0.0000 H   0  0  0  0  0  0  0  0  0  0  0  0
    7.9473   -2.1386    0.0000 H   0  0  0  0  0  0  0  0  0  0  0  0
    7.7783   -1.3584    0.0000 H   0  0  0  0  0  0  0  0  0  0  0  0
    7.0957   -3.4593    0.0000 H   0  0  0  0  0  0  0  0  0  0  0  0
    7.6910   -2.9274    0.0000 H   0  0  0  0  0  0  0  0  0  0  0  0
    3.8852   -3.6357    0.0000 H   0  0  0  0  0  0  0  0  0  0  0  0
    1.7384   -1.7177    0.0000 H   0  0  0  0  0  0  0  0  0  0  0  0
    3.4688    0.4653    0.0000 H   0  0  0  0  0  0  0  0  0  0  0  0
    6.2747    0.4653    0.0000 H   0  0  0  0  0  0  0  0  0  0  0  0
    1.5377   -3.1722    0.0000 H   0  0  0  0  0  0  0  0  0  0  0  0
    1.5869   -4.0476    0.0000 H   0  0  0  0  0  0  0  0  0  0  0  0
    2.4624   -3.9984    0.0000 H   0  0  0  0  0  0  0  0  0  0  0  0
    3.4688    2.0853    0.0000 H   0  0  0  0  0  0  0  0  0  0  0  0
    6.2747    2.0853    0.0000 H   0  0  0  0  0  0  0  0  0  0  0  0
    5.4087    3.5853    0.0000 H   0  0  0  0  0  0  0  0  0  0  0  0
  1 14  2  0  0  0  0
  2 22  1  0  0  0  0
  2 40  1  0  0  0  0
  3  4  1  0  0  0  0
  3  5  1  0  0  0  0
  3  9  1  0  0  0  0
  4  6  1  0  0  0  0
  4 10  1  0  0  0  0
  5  7  1  0  0  0  0
  5 23  1  0  0  0  0
  5 24  1  0  0  0  0
  6  8  1  0  0  0  0
  6 25  1  0  0  0  0
  6 26  1  0  0  0  0
  7  8  1  0  0  0  0
  7 27  1  0  0  0  0
  7 28  1  0  0  0  0
  8 29  1  0  0  0  0
  8 30  1  0  0  0  0
  9 11  2  0  0  0  0
  9 13  1  0  0  0  0
 10 11  1  0  0  0  0
 10 12  2  0  0  0  0
 11 14  1  0  0  0  0
 12 15  1  0  0  0  0
 12 31  1  0  0  0  0
 13 17  2  0  0  0  0
 13 18  1  0  0  0  0
 14 16  1  0  0  0  0
 15 16  2  0  0  0  0
 15 19  1  0  0  0  0
 16 32  1  0  0  0  0
 17 20  1  0  0  0  0
 17 33  1  0  0  0  0
 18 21  2  0  0  0  0
 18 34  1  0  0  0  0
 19 35  1  0  0  0  0
 19 36  1  0  0  0  0
 19 37  1  0  0  0  0
 20 22  2  0  0  0  0
 20 38  1  0  0  0  0
 21 22  1  0  0  0  0
 21 39  1  0  0  0  0
M  END
> <PUBCHEM_COMPOUND_CID>
136828302

> <PUBCHEM_COMPOUND_CANONICALIZED>
1

> <PUBCHEM_CACTVS_COMPLEXITY>
594

> <PUBCHEM_CACTVS_HBOND_ACCEPTOR>
4

> <PUBCHEM_CACTVS_HBOND_DONOR>
1

> <PUBCHEM_CACTVS_ROTATABLE_BOND>
1

> <PUBCHEM_CACTVS_SUBSKEYS>
AAADceB7MAAAAAAAAAAAAAAAAAAAAQAAAAA8QIAAAAAAAEABAAAAHgAICAAADAzBmAQyBoIAAgCIAqRSQACCAAAgIgAYiAEODMgIJiqCkROEcAhkwBGImUeQ0AIOIAAAAAAAAABAAAAAAAAAAAAAAAAAAA==

> <PUBCHEM_IUPAC_OPENEYE_NAME>
11-(4-hydroxyphenyl)-3-methyl-6,7,8,9-tetrahydropyridazino[1,2-a]indazol-1-one

> <PUBCHEM_IUPAC_CAS_NAME>
11-(4-hydroxyphenyl)-3-methyl-6,7,8,9-tetrahydropyridazino[1,2-a]indazol-1-one

> <PUBCHEM_IUPAC_NAME_MARKUP>
11-(4-hydroxyphenyl)-3-methyl-6,7,8,9-tetrahydropyridazino[1,2-a]indazol-1-one

> <PUBCHEM_IUPAC_NAME>
11-(4-hydroxyphenyl)-3-methyl-6,7,8,9-tetrahydropyridazino[1,2-a]indazol-1-one

> <PUBCHEM_IUPAC_SYSTEMATIC_NAME>
11-(4-hydroxyphenyl)-3-methyl-6,7,8,9-tetrahydropyridazino[1,2-a]indazol-1-one

> <PUBCHEM_IUPAC_TRADITIONAL_NAME>
11-(4-hydroxyphenyl)-3-methyl-6,7,8,9-tetrahydropyridazin[1,2-a]indazol-1-one

> <PUBCHEM_IUPAC_INCHI>
InChI=1S/C18H18N2O2/c1-12-10-15-17(16(22)11-12)18(13-4-6-14(21)7-5-13)20-9-3-2-8-19(15)20/h4-7,10-11,21H,2-3,8-9H2,1H3

> <PUBCHEM_IUPAC_INCHIKEY>
HJKNBAAMIKPHJF-UHFFFAOYSA-N

> <PUBCHEM_XLOGP3_AA>
2.9

> <PUBCHEM_EXACT_MASS>
294.136827821

> <PUBCHEM_MOLECULAR_FORMULA>
C18H18N2O2

> <PUBCHEM_MOLECULAR_WEIGHT>
294.3

> <PUBCHEM_SMILES>
CC1=CC(=O)C2=C(N3CCCCN3C2=C1)C4=CC=C(C=C4)O

> <PUBCHEM_CONNECTIVITY_SMILES>
CC1=CC(=O)C2=C(N3CCCCN3C2=C1)C4=CC=C(C=C4)O

> <PUBCHEM_CACTVS_TPSA>
43.8

> <PUBCHEM_MONOISOTOPIC_WEIGHT>
294.136827821

> <PUBCHEM_TOTAL_CHARGE>
0

> <PUBCHEM_HEAVY_ATOM_COUNT>
22

> <PUBCHEM_ATOM_DEF_STEREO_COUNT>
0

> <PUBCHEM_ATOM_UDEF_STEREO_COUNT>
0

> <PUBCHEM_BOND_DEF_STEREO_COUNT>
0

> <PUBCHEM_BOND_UDEF_STEREO_COUNT>
0

> <PUBCHEM_ISOTOPIC_ATOM_COUNT>
0

> <PUBCHEM_COMPONENT_COUNT>
1

> <PUBCHEM_CACTVS_TAUTO_COUNT>
-1

> <PUBCHEM_COORDINATE_TYPE>
1
5
255

> <PUBCHEM_BONDANNOTATIONS>
10  12  8
11  14  8
12  15  8
13  17  8
13  18  8
14  16  8
15  16  8
17  20  8
18  21  8
20  22  8
21  22  8
3  4  8
3  9  8
4  10  8
9  11  8

$$$$
