91783
  -OEChem-01202622182D

 21 20  0     0  0  0  0  0  0999 V2000
    5.1350    0.0000    0.0000 Si  0  0  0  0  0  0  0  0  0  0  0  0
    3.4030    0.0000    0.0000 Si  0  0  0  0  0  0  0  0  0  0  0  0
    4.2690    0.5000    0.0000 O   0  0  0  0  0  0  0  0  0  0  0  0
    2.5369   -0.5000    0.0000 O   0  0  0  0  0  0  0  0  0  0  0  0
    2.9030    0.8660    0.0000 O   0  0  0  0  0  0  0  0  0  0  0  0
    3.9030   -0.8660    0.0000 O   0  0  0  0  0  0  0  0  0  0  0  0
    6.0010   -0.5000    0.0000 C   0  0  0  0  0  0  0  0  0  0  0  0
    5.6350    0.8660    0.0000 C   0  0  0  0  0  0  0  0  0  0  0  0
    4.6350   -0.8660    0.0000 C   0  0  0  0  0  0  0  0  0  0  0  0
    5.6910   -1.0369    0.0000 H   0  0  0  0  0  0  0  0  0  0  0  0
    6.5380   -0.8100    0.0000 H   0  0  0  0  0  0  0  0  0  0  0  0
    6.3110    0.0369    0.0000 H   0  0  0  0  0  0  0  0  0  0  0  0
    6.1720    0.5560    0.0000 H   0  0  0  0  0  0  0  0  0  0  0  0
    5.9450    1.4030    0.0000 H   0  0  0  0  0  0  0  0  0  0  0  0
    5.0981    1.1760    0.0000 H   0  0  0  0  0  0  0  0  0  0  0  0
    4.0981   -0.5560    0.0000 H   0  0  0  0  0  0  0  0  0  0  0  0
    4.3250   -1.4030    0.0000 H   0  0  0  0  0  0  0  0  0  0  0  0
    5.1720   -1.1760    0.0000 H   0  0  0  0  0  0  0  0  0  0  0  0
    2.0000   -0.1900    0.0000 H   0  0  0  0  0  0  0  0  0  0  0  0
    3.2130    1.4030    0.0000 H   0  0  0  0  0  0  0  0  0  0  0  0
    3.5930   -1.4030    0.0000 H   0  0  0  0  0  0  0  0  0  0  0  0
  1  3  1  0  0  0  0
  1  7  1  0  0  0  0
  1  8  1  0  0  0  0
  1  9  1  0  0  0  0
  2  3  1  0  0  0  0
  2  4  1  0  0  0  0
  2  5  1  0  0  0  0
  2  6  1  0  0  0  0
  4 19  1  0  0  0  0
  5 20  1  0  0  0  0
  6 21  1  0  0  0  0
  7 10  1  0  0  0  0
  7 11  1  0  0  0  0
  7 12  1  0  0  0  0
  8 13  1  0  0  0  0
  8 14  1  0  0  0  0
  8 15  1  0  0  0  0
  9 16  1  0  0  0  0
  9 17  1  0  0  0  0
  9 18  1  0  0  0  0
M  END
> <PUBCHEM_COMPOUND_CID>
91783

> <PUBCHEM_COMPOUND_CANONICALIZED>
1

> <PUBCHEM_CACTVS_COMPLEXITY>
91

> <PUBCHEM_CACTVS_HBOND_ACCEPTOR>
4

> <PUBCHEM_CACTVS_HBOND_DONOR>
3

> <PUBCHEM_CACTVS_ROTATABLE_BOND>
2

> <PUBCHEM_CACTVS_SUBSKEYS>
AAADccBAOAwAAAAAAAAAAAAAAAAAAAAAAAAAAAAAAAAAAAAAAAAAEBAACEAAAAAAAABCAAAAAAEAAAAAAAAAAAAAAAAAAAAAAAAAAAAAAAAAAAAAAAAAAAAAAAAAAAAAAAAAAAAAAAAAAAAAAAAAAAAAAA==

> <PUBCHEM_IUPAC_OPENEYE_NAME>
trihydroxy(trimethylsilyloxy)silane

> <PUBCHEM_IUPAC_CAS_NAME>
trihydroxy(trimethylsilyloxy)silane

> <PUBCHEM_IUPAC_NAME_MARKUP>
trihydroxy(trimethylsilyloxy)silane

> <PUBCHEM_IUPAC_NAME>
trihydroxy(trimethylsilyloxy)silane

> <PUBCHEM_IUPAC_SYSTEMATIC_NAME>
trimethyl-tris(oxidanyl)silyloxy-silane

> <PUBCHEM_IUPAC_TRADITIONAL_NAME>
trihydroxy(trimethylsilyloxy)silane

> <PUBCHEM_IUPAC_INCHI>
InChI=1S/C3H12O4Si2/c1-8(2,3)7-9(4,5)6/h4-6H,1-3H3

> <PUBCHEM_IUPAC_INCHIKEY>
MNTALGTVSQTALQ-UHFFFAOYSA-N

> <PUBCHEM_EXACT_MASS>
168.02741193

> <PUBCHEM_MOLECULAR_FORMULA>
C3H12O4Si2

> <PUBCHEM_MOLECULAR_WEIGHT>
168.30

> <PUBCHEM_SMILES>
C[Si](C)(C)O[Si](O)(O)O

> <PUBCHEM_CONNECTIVITY_SMILES>
C[Si](C)(C)O[Si](O)(O)O

> <PUBCHEM_CACTVS_TPSA>
69.9

> <PUBCHEM_MONOISOTOPIC_WEIGHT>
168.02741193

> <PUBCHEM_TOTAL_CHARGE>
0

> <PUBCHEM_HEAVY_ATOM_COUNT>
9

> <PUBCHEM_ATOM_DEF_STEREO_COUNT>
0

> <PUBCHEM_ATOM_UDEF_STEREO_COUNT>
0

> <PUBCHEM_BOND_DEF_STEREO_COUNT>
0

> <PUBCHEM_BOND_UDEF_STEREO_COUNT>
0

> <PUBCHEM_ISOTOPIC_ATOM_COUNT>
0

> <PUBCHEM_COMPONENT_COUNT>
1

> <PUBCHEM_CACTVS_TAUTO_COUNT>
-1

> <PUBCHEM_COORDINATE_TYPE>
1
5
255

$$$$
