12314211
  -OEChem-01202622372D

 32 35  0     1  0  0  0  0  0999 V2000
    4.0536    1.6868    0.0000 O   0  0  0  0  0  0  0  0  0  0  0  0
    5.0581   -1.5344    0.0000 O   0  0  0  0  0  0  0  0  0  0  0  0
    6.4076   -2.6895    0.0000 O   0  0  0  0  0  0  0  0  0  0  0  0
    3.6710    0.7630    0.0000 N   0  0  3  0  0  0  0  0  0  0  0  0
    4.9775   -0.5436    0.0000 C   0  0  1  0  0  0  0  0  0  0  0  0
    4.0536   -0.1609    0.0000 C   0  0  2  0  0  0  0  0  0  0  0  0
    4.6115    0.7630    0.0000 C   0  0  0  0  0  0  0  0  0  0  0  0
    3.4324   -0.9970    0.0000 C   0  0  0  0  0  0  0  0  0  0  0  0
    4.9775    2.0695    0.0000 C   0  0  1  0  0  0  0  0  0  0  0  0
    5.9014   -0.1609    0.0000 C   0  0  0  0  0  0  0  0  0  0  0  0
    2.3986   -0.8690    0.0000 C   0  0  0  0  0  0  0  0  0  0  0  0
    2.6405    0.9148    0.0000 C   0  0  0  0  0  0  0  0  0  0  0  0
    2.0000    0.0934    0.0000 C   0  0  0  0  0  0  0  0  0  0  0  0
    5.9014    1.6868    0.0000 C   0  0  0  0  0  0  0  0  0  0  0  0
    6.2841    0.7630    0.0000 C   0  0  0  0  0  0  0  0  0  0  0  0
    6.5450   -0.9185    0.0000 C   0  0  0  0  0  0  0  0  0  0  0  0
    6.0249   -1.7656    0.0000 C   0  0  0  0  0  0  0  0  0  0  0  0
    4.3789   -0.9462    0.0000 H   0  0  0  0  0  0  0  0  0  0  0  0
    4.1050    1.1205    0.0000 H   0  0  0  0  0  0  0  0  0  0  0  0
    5.2315    0.7630    0.0000 H   0  0  0  0  0  0  0  0  0  0  0  0
    3.2520   -1.5902    0.0000 H   0  0  0  0  0  0  0  0  0  0  0  0
    3.9859   -1.2762    0.0000 H   0  0  0  0  0  0  0  0  0  0  0  0
    4.9775    2.9195    0.0000 H   0  0  0  0  0  0  0  0  0  0  0  0
    1.7937   -1.0047    0.0000 H   0  0  0  0  0  0  0  0  0  0  0  0
    2.4288   -1.4883    0.0000 H   0  0  0  0  0  0  0  0  0  0  0  0
    2.8345    1.5037    0.0000 H   0  0  0  0  0  0  0  0  0  0  0  0
    2.0935    1.2068    0.0000 H   0  0  0  0  0  0  0  0  0  0  0  0
    1.5835    0.5526    0.0000 H   0  0  0  0  0  0  0  0  0  0  0  0
    1.4762   -0.2384    0.0000 H   0  0  0  0  0  0  0  0  0  0  0  0
    6.3398    2.1252    0.0000 H   0  0  0  0  0  0  0  0  0  0  0  0
    6.9041    0.7630    0.0000 H   0  0  0  0  0  0  0  0  0  0  0  0
    7.1632   -0.8709    0.0000 H   0  0  0  0  0  0  0  0  0  0  0  0
  1  4  1  0  0  0  0
  1  9  1  0  0  0  0
  5  2  1  1  0  0  0
  2 17  1  0  0  0  0
  3 17  2  0  0  0  0
  4  6  1  0  0  0  0
  4 12  1  0  0  0  0
  5  6  1  0  0  0  0
  5  7  1  0  0  0  0
  5 10  1  0  0  0  0
  6  8  1  0  0  0  0
  6 18  1  1  0  0  0
  7  9  1  0  0  0  0
  7 19  1  0  0  0  0
  7 20  1  0  0  0  0
  8 11  1  0  0  0  0
  8 21  1  0  0  0  0
  8 22  1  0  0  0  0
  9 14  1  0  0  0  0
  9 23  1  1  0  0  0
 10 15  1  0  0  0  0
 10 16  2  0  0  0  0
 11 13  1  0  0  0  0
 11 24  1  0  0  0  0
 11 25  1  0  0  0  0
 12 13  1  0  0  0  0
 12 26  1  0  0  0  0
 12 27  1  0  0  0  0
 13 28  1  0  0  0  0
 13 29  1  0  0  0  0
 14 15  2  0  0  0  0
 14 30  1  0  0  0  0
 15 31  1  0  0  0  0
 16 17  1  0  0  0  0
 16 32  1  0  0  0  0
M  END
> <PUBCHEM_COMPOUND_CID>
12314211

> <PUBCHEM_COMPOUND_CANONICALIZED>
1

> <PUBCHEM_CACTVS_COMPLEXITY>
442

> <PUBCHEM_CACTVS_HBOND_ACCEPTOR>
4

> <PUBCHEM_CACTVS_HBOND_DONOR>
0

> <PUBCHEM_CACTVS_ROTATABLE_BOND>
0

> <PUBCHEM_CACTVS_SUBSKEYS>
AAADccByMAAAAAAAAAAAAAAAAAAAAQAAAAAsWIAAAAAQAECwAAAAHgAEAAAADHzhgAYACAIQBACIAiDSCAAAAAAgAAAoCAAIAEgKBAIAoQAHEAAFwACYoQOwwOAOAAAAAAAAAAAAAAAAAAAAAAAAAAAAAA==

> <PUBCHEM_IUPAC_OPENEYE_NAME>
(1S,2S,9S)-8,15-dioxa-7-azatetracyclo[7.6.1.01,12.02,7]hexadeca-10,12-dien-14-one

> <PUBCHEM_IUPAC_CAS_NAME>
(1S,2S,9S)-8,15-dioxa-7-azatetracyclo[7.6.1.01,12.02,7]hexadeca-10,12-dien-14-one

> <PUBCHEM_IUPAC_NAME_MARKUP>
(1<I>S</I>,2<I>S</I>,9<I>S</I>)-8,15-dioxa-7-azatetracyclo[7.6.1.0<SUP>1,12</SUP>.0<SUP>2,7</SUP>]hexadeca-10,12-dien-14-one

> <PUBCHEM_IUPAC_NAME>
(1S,2S,9S)-8,15-dioxa-7-azatetracyclo[7.6.1.01,12.02,7]hexadeca-10,12-dien-14-one

> <PUBCHEM_IUPAC_SYSTEMATIC_NAME>
(1S,2S,9S)-8,15-dioxa-7-azatetracyclo[7.6.1.01,12.02,7]hexadeca-10,12-dien-14-one

> <PUBCHEM_IUPAC_TRADITIONAL_NAME>
(1S,2S,9S)-8,15-dioxa-7-azatetracyclo[7.6.1.01,12.02,7]hexadeca-10,12-dien-14-one

> <PUBCHEM_IUPAC_INCHI>
InChI=1S/C13H15NO3/c15-12-7-9-4-5-10-8-13(9,16-12)11-3-1-2-6-14(11)17-10/h4-5,7,10-11H,1-3,6,8H2/t10-,11+,13+/m1/s1

> <PUBCHEM_IUPAC_INCHIKEY>
CTFXYMMZXWWOFY-MDZLAQPJSA-N

> <PUBCHEM_XLOGP3_AA>
1.2

> <PUBCHEM_EXACT_MASS>
233.10519334

> <PUBCHEM_MOLECULAR_FORMULA>
C13H15NO3

> <PUBCHEM_MOLECULAR_WEIGHT>
233.26

> <PUBCHEM_SMILES>
C1CCN2[C@@H](C1)[C@]34C[C@H](O2)C=CC3=CC(=O)O4

> <PUBCHEM_CONNECTIVITY_SMILES>
C1CCN2C(C1)C34CC(O2)C=CC3=CC(=O)O4

> <PUBCHEM_CACTVS_TPSA>
38.8

> <PUBCHEM_MONOISOTOPIC_WEIGHT>
233.10519334

> <PUBCHEM_TOTAL_CHARGE>
0

> <PUBCHEM_HEAVY_ATOM_COUNT>
17

> <PUBCHEM_ATOM_DEF_STEREO_COUNT>
3

> <PUBCHEM_ATOM_UDEF_STEREO_COUNT>
0

> <PUBCHEM_BOND_DEF_STEREO_COUNT>
0

> <PUBCHEM_BOND_UDEF_STEREO_COUNT>
0

> <PUBCHEM_ISOTOPIC_ATOM_COUNT>
0

> <PUBCHEM_COMPONENT_COUNT>
1

> <PUBCHEM_CACTVS_TAUTO_COUNT>
-1

> <PUBCHEM_COORDINATE_TYPE>
1
5
255

> <PUBCHEM_BONDANNOTATIONS>
5  2  5
6  18  5
9  23  5

$$$$
