122792
  -OEChem-01202622202D

 90 96  0     1  0  0  0  0  0999 V2000
    6.0010   -5.9635    0.0000 O   0  0  0  0  0  0  0  0  0  0  0  0
    4.2690   -3.9635    0.0000 O   0  0  0  0  0  0  0  0  0  0  0  0
    6.9716   -4.4689    0.0000 O   0  0  0  0  0  0  0  0  0  0  0  0
    6.0010   -3.9635    0.0000 O   0  0  0  0  0  0  0  0  0  0  0  0
    4.2690   -6.9635    0.0000 O   0  0  0  0  0  0  0  0  0  0  0  0
    2.5369   -5.9635    0.0000 O   0  0  0  0  0  0  0  0  0  0  0  0
    8.9017    1.0284    0.0000 O   0  0  0  0  0  0  0  0  0  0  0  0
    7.9885   -6.8484    0.0000 O   0  0  0  0  0  0  0  0  0  0  0  0
    9.4443   -5.2316    0.0000 O   0  0  0  0  0  0  0  0  0  0  0  0
    6.0288   -0.8556    0.0000 O   0  0  0  0  0  0  0  0  0  0  0  0
   10.9844    2.7604    0.0000 O   0  0  0  0  0  0  0  0  0  0  0  0
    2.5369   -2.9635    0.0000 O   0  0  0  0  0  0  0  0  0  0  0  0
    9.3510   -3.2430    0.0000 O   0  0  0  0  0  0  0  0  0  0  0  0
    7.4218    3.6380    0.0000 O   0  0  0  0  0  0  0  0  0  0  0  0
    8.9039    6.4055    0.0000 O   0  0  0  0  0  0  0  0  0  0  0  0
   10.9955    6.4055    0.0000 O   0  0  0  0  0  0  0  0  0  0  0  0
    5.1350   -5.4635    0.0000 C   0  0  2  0  0  0  0  0  0  0  0  0
    4.2690   -5.9635    0.0000 C   0  0  2  0  0  0  0  0  0  0  0  0
    3.4030   -5.4635    0.0000 C   0  0  1  0  0  0  0  0  0  0  0  0
    5.1350   -4.4635    0.0000 C   0  0  2  0  0  0  0  0  0  0  0  0
    6.8671   -5.4635    0.0000 C   0  0  2  0  0  0  0  0  0  0  0  0
    3.4030   -4.4635    0.0000 C   0  0  1  0  0  0  0  0  0  0  0  0
    7.7806   -5.8702    0.0000 C   0  0  2  0  0  0  0  0  0  0  0  0
    8.4497   -5.1271    0.0000 C   0  0  1  0  0  0  0  0  0  0  0  0
    7.9497   -4.2610    0.0000 C   0  0  1  0  0  0  0  0  0  0  0  0
    8.9151    2.7604    0.0000 C   0  0  3  0  0  0  0  0  0  0  0  0
    9.4084    1.8906    0.0000 C   0  0  3  0  0  0  0  0  0  0  0  0
    2.5369   -3.9635    0.0000 C   0  0  0  0  0  0  0  0  0  0  0  0
    6.8671   -1.4635    0.0000 C   0  0  3  0  0  0  0  0  0  0  0  0
    7.3879    0.1301    0.0000 C   0  0  0  0  0  0  0  0  0  0  0  0
    7.7053   -0.8556    0.0000 C   0  0  0  0  0  0  0  0  0  0  0  0
    8.3565   -3.3475    0.0000 C   0  0  0  0  0  0  0  0  0  0  0  0
    7.9017    1.0361    0.0000 C   0  0  0  0  0  0  0  0  0  0  0  0
    6.0010   -2.9635    0.0000 C   0  0  0  0  0  0  0  0  0  0  0  0
    7.4084    1.9060    0.0000 C   0  0  0  0  0  0  0  0  0  0  0  0
    7.9151    2.7681    0.0000 C   0  0  0  0  0  0  0  0  0  0  0  0
    9.4289    3.6665    0.0000 C   0  0  0  0  0  0  0  0  0  0  0  0
    6.8671   -2.4635    0.0000 C   0  0  0  0  0  0  0  0  0  0  0  0
   10.4497    1.8665    0.0000 C   0  0  0  0  0  0  0  0  0  0  0  0
    6.3463    0.1301    0.0000 C   0  0  0  0  0  0  0  0  0  0  0  0
   10.4705    3.6665    0.0000 C   0  0  0  0  0  0  0  0  0  0  0  0
    6.3671    1.9301    0.0000 C   0  0  0  0  0  0  0  0  0  0  0  0
    5.8324    1.0361    0.0000 C   0  0  0  0  0  0  0  0  0  0  0  0
    8.8720    4.5976    0.0000 C   0  0  0  0  0  0  0  0  0  0  0  0
    7.7331   -2.9635    0.0000 C   0  0  0  0  0  0  0  0  0  0  0  0
   11.0274    4.5976    0.0000 C   0  0  0  0  0  0  0  0  0  0  0  0
    9.4072    5.5414    0.0000 C   0  0  0  0  0  0  0  0  0  0  0  0
   10.4922    5.5414    0.0000 C   0  0  0  0  0  0  0  0  0  0  0  0
    9.4005    7.2735    0.0000 C   0  0  0  0  0  0  0  0  0  0  0  0
   11.9955    6.4017    0.0000 C   0  0  0  0  0  0  0  0  0  0  0  0
    5.1350   -6.0835    0.0000 H   0  0  0  0  0  0  0  0  0  0  0  0
    3.7321   -6.2735    0.0000 H   0  0  0  0  0  0  0  0  0  0  0  0
    3.4030   -6.0835    0.0000 H   0  0  0  0  0  0  0  0  0  0  0  0
    5.1350   -3.8435    0.0000 H   0  0  0  0  0  0  0  0  0  0  0  0
    6.3471   -5.1258    0.0000 H   0  0  0  0  0  0  0  0  0  0  0  0
    3.4030   -3.8435    0.0000 H   0  0  0  0  0  0  0  0  0  0  0  0
    7.2988   -6.2604    0.0000 H   0  0  0  0  0  0  0  0  0  0  0  0
    8.6719   -5.7059    0.0000 H   0  0  0  0  0  0  0  0  0  0  0  0
    7.5596   -3.7792    0.0000 H   0  0  0  0  0  0  0  0  0  0  0  0
    8.6051    3.2974    0.0000 H   0  0  0  0  0  0  0  0  0  0  0  0
    9.7100    1.3489    0.0000 H   0  0  0  0  0  0  0  0  0  0  0  0
    1.9264   -3.8558    0.0000 H   0  0  0  0  0  0  0  0  0  0  0  0
    2.3249   -4.5461    0.0000 H   0  0  0  0  0  0  0  0  0  0  0  0
    6.3148   -1.7452    0.0000 H   0  0  0  0  0  0  0  0  0  0  0  0
    8.0145   -1.3929    0.0000 H   0  0  0  0  0  0  0  0  0  0  0  0
    8.2722   -0.6045    0.0000 H   0  0  0  0  0  0  0  0  0  0  0  0
    8.3997   -2.7290    0.0000 H   0  0  0  0  0  0  0  0  0  0  0  0
    7.7549   -3.1975    0.0000 H   0  0  0  0  0  0  0  0  0  0  0  0
    5.7890   -2.3809    0.0000 H   0  0  0  0  0  0  0  0  0  0  0  0
    5.3905   -3.0711    0.0000 H   0  0  0  0  0  0  0  0  0  0  0  0
    3.7321   -7.2735    0.0000 H   0  0  0  0  0  0  0  0  0  0  0  0
   10.3295    1.2582    0.0000 H   0  0  0  0  0  0  0  0  0  0  0  0
   11.0284    1.6440    0.0000 H   0  0  0  0  0  0  0  0  0  0  0  0
    2.0000   -5.6535    0.0000 H   0  0  0  0  0  0  0  0  0  0  0  0
    8.5782   -7.0399    0.0000 H   0  0  0  0  0  0  0  0  0  0  0  0
    9.6964   -5.7980    0.0000 H   0  0  0  0  0  0  0  0  0  0  0  0
    6.0675    2.4729    0.0000 H   0  0  0  0  0  0  0  0  0  0  0  0
    5.2124    1.0433    0.0000 H   0  0  0  0  0  0  0  0  0  0  0  0
    8.2520    4.5905    0.0000 H   0  0  0  0  0  0  0  0  0  0  0  0
    2.0000   -2.6535    0.0000 H   0  0  0  0  0  0  0  0  0  0  0  0
    7.7331   -3.5835    0.0000 H   0  0  0  0  0  0  0  0  0  0  0  0
    8.2700   -2.6535    0.0000 H   0  0  0  0  0  0  0  0  0  0  0  0
   11.6474    4.5905    0.0000 H   0  0  0  0  0  0  0  0  0  0  0  0
    9.6032   -2.6766    0.0000 H   0  0  0  0  0  0  0  0  0  0  0  0
    9.9387    6.9655    0.0000 H   0  0  0  0  0  0  0  0  0  0  0  0
    9.7085    7.8116    0.0000 H   0  0  0  0  0  0  0  0  0  0  0  0
    8.8624    7.5814    0.0000 H   0  0  0  0  0  0  0  0  0  0  0  0
   11.9931    5.7817    0.0000 H   0  0  0  0  0  0  0  0  0  0  0  0
   12.6155    6.3993    0.0000 H   0  0  0  0  0  0  0  0  0  0  0  0
   11.9979    7.0217    0.0000 H   0  0  0  0  0  0  0  0  0  0  0  0
 17  1  1  6  0  0  0
 21  1  1  6  0  0  0
  2 20  1  0  0  0  0
  2 22  1  0  0  0  0
  3 21  1  0  0  0  0
  3 25  1  0  0  0  0
 20  4  1  6  0  0  0
  4 34  1  0  0  0  0
 18  5  1  1  0  0  0
  5 71  1  0  0  0  0
 19  6  1  6  0  0  0
  6 74  1  0  0  0  0
  7 27  1  0  0  0  0
  7 33  1  0  0  0  0
 23  8  1  6  0  0  0
  8 75  1  0  0  0  0
 24  9  1  1  0  0  0
  9 76  1  0  0  0  0
 10 29  1  0  0  0  0
 10 40  1  0  0  0  0
 11 39  1  0  0  0  0
 11 41  1  0  0  0  0
 12 28  1  0  0  0  0
 12 80  1  0  0  0  0
 13 32  1  0  0  0  0
 13 84  1  0  0  0  0
 14 36  2  0  0  0  0
 15 47  1  0  0  0  0
 15 49  1  0  0  0  0
 16 48  1  0  0  0  0
 16 50  1  0  0  0  0
 17 18  1  0  0  0  0
 17 20  1  0  0  0  0
 17 51  1  0  0  0  0
 18 19  1  0  0  0  0
 18 52  1  0  0  0  0
 19 22  1  0  0  0  0
 19 53  1  0  0  0  0
 20 54  1  0  0  0  0
 21 23  1  0  0  0  0
 21 55  1  0  0  0  0
 22 28  1  1  0  0  0
 22 56  1  0  0  0  0
 23 24  1  0  0  0  0
 23 57  1  0  0  0  0
 24 25  1  0  0  0  0
 24 58  1  0  0  0  0
 25 32  1  6  0  0  0
 25 59  1  0  0  0  0
 26 27  1  0  0  0  0
 26 36  1  0  0  0  0
 26 37  1  0  0  0  0
 26 60  1  0  0  0  0
 27 39  1  0  0  0  0
 27 61  1  0  0  0  0
 28 62  1  0  0  0  0
 28 63  1  0  0  0  0
 29 31  1  0  0  0  0
 29 38  1  0  0  0  0
 29 64  1  0  0  0  0
 30 31  1  0  0  0  0
 30 33  1  0  0  0  0
 30 40  2  0  0  0  0
 31 65  1  0  0  0  0
 31 66  1  0  0  0  0
 32 67  1  0  0  0  0
 32 68  1  0  0  0  0
 33 35  2  0  0  0  0
 34 38  1  0  0  0  0
 34 69  1  0  0  0  0
 34 70  1  0  0  0  0
 35 36  1  0  0  0  0
 35 42  1  0  0  0  0
 37 41  1  0  0  0  0
 37 44  2  0  0  0  0
 38 45  2  0  0  0  0
 39 72  1  0  0  0  0
 39 73  1  0  0  0  0
 40 43  1  0  0  0  0
 41 46  2  0  0  0  0
 42 43  2  0  0  0  0
 42 77  1  0  0  0  0
 43 78  1  0  0  0  0
 44 47  1  0  0  0  0
 44 79  1  0  0  0  0
 45 81  1  0  0  0  0
 45 82  1  0  0  0  0
 46 48  1  0  0  0  0
 46 83  1  0  0  0  0
 47 48  2  0  0  0  0
 49 85  1  0  0  0  0
 49 86  1  0  0  0  0
 49 87  1  0  0  0  0
 50 88  1  0  0  0  0
 50 89  1  0  0  0  0
 50 90  1  0  0  0  0
M  END
> <PUBCHEM_COMPOUND_CID>
122792

> <PUBCHEM_COMPOUND_CANONICALIZED>
1

> <PUBCHEM_CACTVS_COMPLEXITY>
1210

> <PUBCHEM_CACTVS_HBOND_ACCEPTOR>
16

> <PUBCHEM_CACTVS_HBOND_DONOR>
6

> <PUBCHEM_CACTVS_ROTATABLE_BOND>
10

> <PUBCHEM_CACTVS_SUBSKEYS>
AAADcfB8PgAAAAAAAAAAAAAAAAAAASJAAAA0aJECAAAAAEiRQAAAGgAACAAADRSwmAMyDoAABgCIAqBSAAACCAAkIAAIiAEGiMgdNzaENRqieWKl4BUPqYfK7PzOoQADCAAIQABCAAYQABCAAAAAAAAAAA==

> <PUBCHEM_IUPAC_OPENEYE_NAME>
6-[1-[[(2S,3R,4S,5S,6R)-3-[(2S,3S,4S,5R)-3,4-dihydroxy-5-(hydroxymethyl)tetrahydrofuran-2-yl]oxy-4,5-dihydroxy-6-(hydroxymethyl)tetrahydropyran-2-yl]oxymethyl]vinyl]-16,17-dimethoxy-2,7,20-trioxapentacyclo[11.8.0.03,11.04,8.014,19]henicosa-3(11),4(8),9,14,16,18-hexaen-12-one

> <PUBCHEM_IUPAC_CAS_NAME>
6-[3-[[(2S,3R,4S,5S,6R)-3-[[(2S,3S,4S,5R)-3,4-dihydroxy-5-(hydroxymethyl)-2-oxolanyl]oxy]-4,5-dihydroxy-6-(hydroxymethyl)-2-oxanyl]oxy]prop-1-en-2-yl]-16,17-dimethoxy-2,7,20-trioxapentacyclo[11.8.0.03,11.04,8.014,19]heneicosa-3(11),4(8),9,14,16,18-hexaen-12-one

> <PUBCHEM_IUPAC_NAME_MARKUP>
6-[3-[(2<I>S</I>,3<I>R</I>,4<I>S</I>,5<I>S</I>,6<I>R</I>)-3-[(2<I>S</I>,3<I>S</I>,4<I>S</I>,5<I>R</I>)-3,4-dihydroxy-5-(hydroxymethyl)oxolan-2-yl]oxy-4,5-dihydroxy-6-(hydroxymethyl)oxan-2-yl]oxyprop-1-en-2-yl]-16,17-dimethoxy-2,7,20-trioxapentacyclo[11.8.0.0<SUP>3,11</SUP>.0<SUP>4,8</SUP>.0<SUP>14,19</SUP>]henicosa-3(11),4(8),9,14,16,18-hexaen-12-one

> <PUBCHEM_IUPAC_NAME>
6-[3-[(2S,3R,4S,5S,6R)-3-[(2S,3S,4S,5R)-3,4-dihydroxy-5-(hydroxymethyl)oxolan-2-yl]oxy-4,5-dihydroxy-6-(hydroxymethyl)oxan-2-yl]oxyprop-1-en-2-yl]-16,17-dimethoxy-2,7,20-trioxapentacyclo[11.8.0.03,11.04,8.014,19]henicosa-3(11),4(8),9,14,16,18-hexaen-12-one

> <PUBCHEM_IUPAC_SYSTEMATIC_NAME>
6-[3-[(2S,3R,4S,5S,6R)-6-(hydroxymethyl)-3-[(2S,3S,4S,5R)-5-(hydroxymethyl)-3,4-bis(oxidanyl)oxolan-2-yl]oxy-4,5-bis(oxidanyl)oxan-2-yl]oxyprop-1-en-2-yl]-16,17-dimethoxy-2,7,20-trioxapentacyclo[11.8.0.03,11.04,8.014,19]henicosa-3(11),4(8),9,14,16,18-hexaen-12-one

> <PUBCHEM_IUPAC_TRADITIONAL_NAME>
6-[1-[[(2S,3R,4S,5S,6R)-3-[(2S,3S,4S,5R)-3,4-dihydroxy-5-methylol-tetrahydrofuran-2-yl]oxy-4,5-dihydroxy-6-methylol-tetrahydropyran-2-yl]oxymethyl]vinyl]-16,17-dimethoxy-2,7,20-trioxapentacyclo[11.8.0.03,11.04,8.014,19]heneicosa-3(11),4(8),9,14,16,18-hexaen-12-one

> <PUBCHEM_IUPAC_INCHI>
InChI=1S/C34H40O16/c1-13(11-45-34-32(29(40)27(38)22(9-35)49-34)50-33-30(41)28(39)23(10-36)48-33)18-7-16-17(46-18)5-4-14-26(37)25-15-6-20(42-2)21(43-3)8-19(15)44-12-24(25)47-31(14)16/h4-6,8,18,22-25,27-30,32-36,38-41H,1,7,9-12H2,2-3H3/t18?,22-,23-,24?,25?,27-,28-,29+,30+,32-,33+,34+/m1/s1

> <PUBCHEM_IUPAC_INCHIKEY>
KYQUROIGNLKYLB-IMEKBZPCSA-N

> <PUBCHEM_XLOGP3>
0.3

> <PUBCHEM_EXACT_MASS>
704.23163518

> <PUBCHEM_MOLECULAR_FORMULA>
C34H40O16

> <PUBCHEM_MOLECULAR_WEIGHT>
704.7

> <PUBCHEM_SMILES>
COC1=C(C=C2C(=C1)C3C(CO2)OC4=C(C3=O)C=CC5=C4CC(O5)C(=C)CO[C@@H]6[C@@H]([C@H]([C@@H]([C@H](O6)CO)O)O)O[C@H]7[C@H]([C@@H]([C@H](O7)CO)O)O)OC

> <PUBCHEM_CONNECTIVITY_SMILES>
COC1=C(C=C2C(=C1)C3C(CO2)OC4=C(C3=O)C=CC5=C4CC(O5)C(=C)COC6C(C(C(C(O6)CO)O)O)OC7C(C(C(O7)CO)O)O)OC

> <PUBCHEM_CACTVS_TPSA>
222

> <PUBCHEM_MONOISOTOPIC_WEIGHT>
704.23163518

> <PUBCHEM_TOTAL_CHARGE>
0

> <PUBCHEM_HEAVY_ATOM_COUNT>
50

> <PUBCHEM_ATOM_DEF_STEREO_COUNT>
9

> <PUBCHEM_ATOM_UDEF_STEREO_COUNT>
3

> <PUBCHEM_BOND_DEF_STEREO_COUNT>
0

> <PUBCHEM_BOND_UDEF_STEREO_COUNT>
0

> <PUBCHEM_ISOTOPIC_ATOM_COUNT>
0

> <PUBCHEM_COMPONENT_COUNT>
1

> <PUBCHEM_CACTVS_TAUTO_COUNT>
-1

> <PUBCHEM_COORDINATE_TYPE>
1
5
255

> <PUBCHEM_BONDANNOTATIONS>
17  1  6
21  1  6
22  28  5
25  32  6
26  36  3
27  39  3
29  38  3
30  33  8
30  40  8
33  35  8
35  42  8
37  41  8
37  44  8
20  4  6
40  43  8
41  46  8
42  43  8
44  47  8
46  48  8
47  48  8
18  5  5
19  6  6
23  8  6
24  9  5

$$$$
