5491388
  -OEChem-01202622332D

 51 54  0     1  0  0  0  0  0999 V2000
    9.0564    0.7108    0.0000 O   0  0  0  0  0  0  0  0  0  0  0  0
    9.9321   -1.7858    0.0000 O   0  0  0  0  0  0  0  0  0  0  0  0
   11.6602   -0.7792    0.0000 O   0  0  0  0  0  0  0  0  0  0  0  0
   11.6525    1.2208    0.0000 O   0  0  0  0  0  0  0  0  0  0  0  0
   10.7807    2.7175    0.0000 O   0  0  0  0  0  0  0  0  0  0  0  0
    9.0603   -2.3375    0.0000 O   0  0  0  0  0  0  0  0  0  0  0  0
    7.2785    0.7213    0.0000 O   0  0  0  0  0  0  0  0  0  0  0  0
    5.5301   -2.3133    0.0000 O   0  0  0  0  0  0  0  0  0  0  0  0
    5.5301    0.6867    0.0000 O   0  0  0  0  0  0  0  0  0  0  0  0
    2.0000   -0.2892    0.0000 O   0  0  0  0  0  0  0  0  0  0  0  0
    2.0000   -2.3375    0.0000 O   0  0  0  0  0  0  0  0  0  0  0  0
    9.9282   -0.7858    0.0000 C   0  0  2  0  0  0  0  0  0  0  0  0
   10.7923   -0.2825    0.0000 C   0  0  2  0  0  0  0  0  0  0  0  0
    9.0603   -0.2892    0.0000 C   0  0  2  0  0  0  0  0  0  0  0  0
   10.7884    0.7175    0.0000 C   0  0  1  0  0  0  0  0  0  0  0  0
    9.9205    1.2142    0.0000 C   0  0  1  0  0  0  0  0  0  0  0  0
    8.1962   -0.7925    0.0000 C   0  0  0  0  0  0  0  0  0  0  0  0
    9.9166    2.2141    0.0000 C   0  0  0  0  0  0  0  0  0  0  0  0
    7.2901   -0.2787    0.0000 C   0  0  0  0  0  0  0  0  0  0  0  0
    8.1962   -1.8341    0.0000 C   0  0  0  0  0  0  0  0  0  0  0  0
    6.3962   -0.8133    0.0000 C   0  0  0  0  0  0  0  0  0  0  0  0
    6.3962   -1.8133    0.0000 C   0  0  0  0  0  0  0  0  0  0  0  0
    7.2901   -2.3480    0.0000 C   0  0  0  0  0  0  0  0  0  0  0  0
    5.5301   -0.3133    0.0000 C   0  0  0  0  0  0  0  0  0  0  0  0
    4.6641   -0.8133    0.0000 C   0  0  0  0  0  0  0  0  0  0  0  0
    4.6641   -1.8133    0.0000 C   0  0  0  0  0  0  0  0  0  0  0  0
    3.7702   -0.2787    0.0000 C   0  0  0  0  0  0  0  0  0  0  0  0
    9.0564   -3.3375    0.0000 C   0  0  0  0  0  0  0  0  0  0  0  0
    3.7702   -2.3480    0.0000 C   0  0  0  0  0  0  0  0  0  0  0  0
    2.8641   -0.7925    0.0000 C   0  0  0  0  0  0  0  0  0  0  0  0
    2.8641   -1.8341    0.0000 C   0  0  0  0  0  0  0  0  0  0  0  0
    9.3925   -1.0979    0.0000 H   0  0  0  0  0  0  0  0  0  0  0  0
    8.3225    0.1330    0.0000 H   0  0  0  0  0  0  0  0  0  0  0  0
   10.7947   -0.9025    0.0000 H   0  0  0  0  0  0  0  0  0  0  0  0
   10.7860    1.3375    0.0000 H   0  0  0  0  0  0  0  0  0  0  0  0
    9.3824    1.5221    0.0000 H   0  0  0  0  0  0  0  0  0  0  0  0
    9.7023    2.7959    0.0000 H   0  0  0  0  0  0  0  0  0  0  0  0
    9.3065    2.1041    0.0000 H   0  0  0  0  0  0  0  0  0  0  0  0
   10.4702   -2.0938    0.0000 H   0  0  0  0  0  0  0  0  0  0  0  0
   12.1960   -0.4671    0.0000 H   0  0  0  0  0  0  0  0  0  0  0  0
   12.1907    0.9129    0.0000 H   0  0  0  0  0  0  0  0  0  0  0  0
    7.2829   -2.9680    0.0000 H   0  0  0  0  0  0  0  0  0  0  0  0
   10.7783    3.3375    0.0000 H   0  0  0  0  0  0  0  0  0  0  0  0
    6.7381    1.0250    0.0000 H   0  0  0  0  0  0  0  0  0  0  0  0
    3.7773    0.3413    0.0000 H   0  0  0  0  0  0  0  0  0  0  0  0
    8.4364   -3.3351    0.0000 H   0  0  0  0  0  0  0  0  0  0  0  0
    9.0540   -3.9575    0.0000 H   0  0  0  0  0  0  0  0  0  0  0  0
    9.6764   -3.3399    0.0000 H   0  0  0  0  0  0  0  0  0  0  0  0
    3.7773   -2.9680    0.0000 H   0  0  0  0  0  0  0  0  0  0  0  0
    2.0024    0.3308    0.0000 H   0  0  0  0  0  0  0  0  0  0  0  0
    2.0024   -2.9575    0.0000 H   0  0  0  0  0  0  0  0  0  0  0  0
  1 14  1  0  0  0  0
  1 16  1  0  0  0  0
 12  2  1  1  0  0  0
  2 39  1  0  0  0  0
 13  3  1  6  0  0  0
  3 40  1  0  0  0  0
 15  4  1  1  0  0  0
  4 41  1  0  0  0  0
  5 18  1  0  0  0  0
  5 43  1  0  0  0  0
  6 20  1  0  0  0  0
  6 28  1  0  0  0  0
  7 19  1  0  0  0  0
  7 44  1  0  0  0  0
  8 22  1  0  0  0  0
  8 26  1  0  0  0  0
  9 24  2  0  0  0  0
 10 30  1  0  0  0  0
 10 50  1  0  0  0  0
 11 31  1  0  0  0  0
 11 51  1  0  0  0  0
 12 13  1  0  0  0  0
 12 14  1  0  0  0  0
 12 32  1  0  0  0  0
 13 15  1  0  0  0  0
 13 34  1  0  0  0  0
 14 17  1  0  0  0  0
 14 33  1  1  0  0  0
 15 16  1  0  0  0  0
 15 35  1  0  0  0  0
 16 18  1  6  0  0  0
 16 36  1  0  0  0  0
 17 19  1  0  0  0  0
 17 20  2  0  0  0  0
 18 37  1  0  0  0  0
 18 38  1  0  0  0  0
 19 21  2  0  0  0  0
 20 23  1  0  0  0  0
 21 22  1  0  0  0  0
 21 24  1  0  0  0  0
 22 23  2  0  0  0  0
 23 42  1  0  0  0  0
 24 25  1  0  0  0  0
 25 26  1  0  0  0  0
 25 27  2  0  0  0  0
 26 29  2  0  0  0  0
 27 30  1  0  0  0  0
 27 45  1  0  0  0  0
 28 46  1  0  0  0  0
 28 47  1  0  0  0  0
 28 48  1  0  0  0  0
 29 31  1  0  0  0  0
 29 49  1  0  0  0  0
 30 31  2  0  0  0  0
M  END
> <PUBCHEM_COMPOUND_CID>
5491388

> <PUBCHEM_COMPOUND_CANONICALIZED>
1

> <PUBCHEM_CACTVS_COMPLEXITY>
661

> <PUBCHEM_CACTVS_HBOND_ACCEPTOR>
11

> <PUBCHEM_CACTVS_HBOND_DONOR>
7

> <PUBCHEM_CACTVS_ROTATABLE_BOND>
3

> <PUBCHEM_CACTVS_SUBSKEYS>
AAADceB4PAAAAAAAAAAAAAAAAAAAAAAAAAA0aIEAAAAAAACRQAAAGgAACAAADBSgmAIyBoAABgCIAqBSAAACCAAkIAAAiAEGiMgNNzaGNBqCeWGl4BULuYfK7PzOIQADCAAIQABCAAYQABCAAAAAAAAAAA==

> <PUBCHEM_IUPAC_OPENEYE_NAME>
1,6,7-trihydroxy-3-methoxy-2-[(2S,3R,4R,5S,6R)-3,4,5-trihydroxy-6-(hydroxymethyl)tetrahydropyran-2-yl]xanthen-9-one

> <PUBCHEM_IUPAC_CAS_NAME>
1,6,7-trihydroxy-3-methoxy-2-[(2S,3R,4R,5S,6R)-3,4,5-trihydroxy-6-(hydroxymethyl)-2-oxanyl]-9-xanthenone

> <PUBCHEM_IUPAC_NAME_MARKUP>
1,6,7-trihydroxy-3-methoxy-2-[(2<I>S</I>,3<I>R</I>,4<I>R</I>,5<I>S</I>,6<I>R</I>)-3,4,5-trihydroxy-6-(hydroxymethyl)oxan-2-yl]xanthen-9-one

> <PUBCHEM_IUPAC_NAME>
1,6,7-trihydroxy-3-methoxy-2-[(2S,3R,4R,5S,6R)-3,4,5-trihydroxy-6-(hydroxymethyl)oxan-2-yl]xanthen-9-one

> <PUBCHEM_IUPAC_SYSTEMATIC_NAME>
2-[(2S,3R,4R,5S,6R)-6-(hydroxymethyl)-3,4,5-tris(oxidanyl)oxan-2-yl]-3-methoxy-1,6,7-tris(oxidanyl)xanthen-9-one

> <PUBCHEM_IUPAC_TRADITIONAL_NAME>
1,6,7-trihydroxy-3-methoxy-2-[(2S,3R,4R,5S,6R)-3,4,5-trihydroxy-6-methylol-tetrahydropyran-2-yl]xanthone

> <PUBCHEM_IUPAC_INCHI>
InChI=1S/C20H20O11/c1-29-10-4-11-13(15(24)6-2-7(22)8(23)3-9(6)30-11)17(26)14(10)20-19(28)18(27)16(25)12(5-21)31-20/h2-4,12,16,18-23,25-28H,5H2,1H3/t12-,16-,18+,19-,20+/m1/s1

> <PUBCHEM_IUPAC_INCHIKEY>
HDPSXKXQSOVYLL-PQSJUMPYSA-N

> <PUBCHEM_XLOGP3_AA>
0

> <PUBCHEM_EXACT_MASS>
436.10056145

> <PUBCHEM_MOLECULAR_FORMULA>
C20H20O11

> <PUBCHEM_MOLECULAR_WEIGHT>
436.4

> <PUBCHEM_SMILES>
COC1=C(C(=C2C(=C1)OC3=CC(=C(C=C3C2=O)O)O)O)[C@H]4[C@@H]([C@H]([C@@H]([C@H](O4)CO)O)O)O

> <PUBCHEM_CONNECTIVITY_SMILES>
COC1=C(C(=C2C(=C1)OC3=CC(=C(C=C3C2=O)O)O)O)C4C(C(C(C(O4)CO)O)O)O

> <PUBCHEM_CACTVS_TPSA>
186

> <PUBCHEM_MONOISOTOPIC_WEIGHT>
436.10056145

> <PUBCHEM_TOTAL_CHARGE>
0

> <PUBCHEM_HEAVY_ATOM_COUNT>
31

> <PUBCHEM_ATOM_DEF_STEREO_COUNT>
5

> <PUBCHEM_ATOM_UDEF_STEREO_COUNT>
0

> <PUBCHEM_BOND_DEF_STEREO_COUNT>
0

> <PUBCHEM_BOND_UDEF_STEREO_COUNT>
0

> <PUBCHEM_ISOTOPIC_ATOM_COUNT>
0

> <PUBCHEM_COMPONENT_COUNT>
1

> <PUBCHEM_CACTVS_TAUTO_COUNT>
-1

> <PUBCHEM_COORDINATE_TYPE>
1
5
255

> <PUBCHEM_BONDANNOTATIONS>
14  33  5
16  18  6
17  19  8
17  20  8
19  21  8
12  2  5
20  23  8
21  22  8
21  24  8
22  23  8
24  25  8
25  26  8
25  27  8
26  29  8
27  30  8
29  31  8
13  3  6
30  31  8
15  4  5
8  22  8
8  26  8

$$$$
