131751201
  -OEChem-01202614012D

160164  0     1  0  0  0  0  0999 V2000
    7.1962    2.5000    0.0000 O   0  0  0  0  0  0  0  0  0  0  0  0
   15.8564   -4.5000    0.0000 O   0  0  0  0  0  0  0  0  0  0  0  0
    6.3301    1.0000    0.0000 O   0  0  0  0  0  0  0  0  0  0  0  0
   14.1244   -2.5000    0.0000 O   0  0  0  0  0  0  0  0  0  0  0  0
    5.4641    4.5000    0.0000 O   0  0  0  0  0  0  0  0  0  0  0  0
   16.7224   -3.0000    0.0000 O   0  0  0  0  0  0  0  0  0  0  0  0
   15.8564   -2.5000    0.0000 O   0  0  0  0  0  0  0  0  0  0  0  0
    5.4641   -1.5000    0.0000 O   0  0  0  0  0  0  0  0  0  0  0  0
   14.1244   -5.5000    0.0000 O   0  0  0  0  0  0  0  0  0  0  0  0
    8.9282    1.5000    0.0000 O   0  0  0  0  0  0  0  0  0  0  0  0
    7.1962    4.5000    0.0000 O   0  0  0  0  0  0  0  0  0  0  0  0
   12.3923   -4.5000    0.0000 O   0  0  0  0  0  0  0  0  0  0  0  0
    8.9282   -0.5000    0.0000 O   0  0  0  0  0  0  0  0  0  0  0  0
    7.1962   -1.5000    0.0000 O   0  0  0  0  0  0  0  0  0  0  0  0
    5.4641    1.5000    0.0000 O   0  0  0  0  0  0  0  0  0  0  0  0
    3.7321   -1.5000    0.0000 O   0  0  0  0  0  0  0  0  0  0  0  0
    3.7321    2.5000    0.0000 O   0  0  0  0  0  0  0  0  0  0  0  0
   17.5885   -5.5000    0.0000 O   0  0  0  0  0  0  0  0  0  0  0  0
   19.3205   -4.5000    0.0000 O   0  0  0  0  0  0  0  0  0  0  0  0
   19.3205   -2.5000    0.0000 O   0  0  0  0  0  0  0  0  0  0  0  0
   12.3923   -1.5000    0.0000 O   0  0  0  0  0  0  0  0  0  0  0  0
    5.4641   -3.5000    0.0000 O   0  0  0  0  0  0  0  0  0  0  0  0
    3.7321   -4.5000    0.0000 O   0  0  0  0  0  0  0  0  0  0  0  0
    3.7321    5.5000    0.0000 O   0  0  0  0  0  0  0  0  0  0  0  0
    2.0000   -3.5000    0.0000 O   0  0  0  0  0  0  0  0  0  0  0  0
   18.4545   -1.0000    0.0000 O   0  0  0  0  0  0  0  0  0  0  0  0
   14.9904   -4.0000    0.0000 C   0  0  3  0  0  0  0  0  0  0  0  0
   14.1244   -4.5000    0.0000 C   0  0  3  0  0  0  0  0  0  0  0  0
    6.3301    3.0000    0.0000 C   0  0  3  0  0  0  0  0  0  0  0  0
    7.1962    1.5000    0.0000 C   0  0  3  0  0  0  0  0  0  0  0  0
   14.9904   -3.0000    0.0000 C   0  0  3  0  0  0  0  0  0  0  0  0
    8.0622    1.0000    0.0000 C   0  0  3  0  0  0  0  0  0  0  0  0
    6.3301   -0.0000    0.0000 C   0  0  3  0  0  0  0  0  0  0  0  0
   13.2583   -4.0000    0.0000 C   0  0  3  0  0  0  0  0  0  0  0  0
    8.0622    0.0000    0.0000 C   0  0  3  0  0  0  0  0  0  0  0  0
    7.1962   -0.5000    0.0000 C   0  0  3  0  0  0  0  0  0  0  0  0
    5.4641    2.5000    0.0000 C   0  0  3  0  0  0  0  0  0  0  0  0
   13.2583   -3.0000    0.0000 C   0  0  3  0  0  0  0  0  0  0  0  0
   16.7224   -4.0000    0.0000 C   0  0  3  0  0  0  0  0  0  0  0  0
    4.5981    3.0000    0.0000 C   0  0  3  0  0  0  0  0  0  0  0  0
    6.3301    4.0000    0.0000 C   0  0  3  0  0  0  0  0  0  0  0  0
   17.5885   -4.5000    0.0000 C   0  0  3  0  0  0  0  0  0  0  0  0
    4.5981    4.0000    0.0000 C   0  0  3  0  0  0  0  0  0  0  0  0
   18.4545   -4.0000    0.0000 C   0  0  3  0  0  0  0  0  0  0  0  0
   18.4545   -3.0000    0.0000 C   0  0  3  0  0  0  0  0  0  0  0  0
   17.5885   -2.5000    0.0000 C   0  0  3  0  0  0  0  0  0  0  0  0
    5.4641   -0.5000    0.0000 C   0  0  0  0  0  0  0  0  0  0  0  0
   15.8564   -1.5000    0.0000 C   0  0  3  0  0  0  0  0  0  0  0  0
    4.5981   -2.0000    0.0000 C   0  0  3  0  0  0  0  0  0  0  0  0
   12.3923   -2.5000    0.0000 C   0  0  0  0  0  0  0  0  0  0  0  0
    4.5981   -3.0000    0.0000 C   0  0  3  0  0  0  0  0  0  0  0  0
    3.7321   -3.5000    0.0000 C   0  0  3  0  0  0  0  0  0  0  0  0
    3.7321    4.5000    0.0000 C   0  0  0  0  0  0  0  0  0  0  0  0
    2.8660   -3.0000    0.0000 C   0  0  3  0  0  0  0  0  0  0  0  0
    2.8660   -2.0000    0.0000 C   0  0  3  0  0  0  0  0  0  0  0  0
   17.5885   -1.5000    0.0000 C   0  0  0  0  0  0  0  0  0  0  0  0
   15.8564   -0.5000    0.0000 C   0  0  0  0  0  0  0  0  0  0  0  0
   14.8564   -1.5000    0.0000 C   0  0  0  0  0  0  0  0  0  0  0  0
   16.8564   -1.5000    0.0000 C   0  0  0  0  0  0  0  0  0  0  0  0
   14.9904    0.0000    0.0000 C   0  0  0  0  0  0  0  0  0  0  0  0
    8.0622    4.0000    0.0000 C   0  0  0  0  0  0  0  0  0  0  0  0
    2.0000   -1.5000    0.0000 C   0  0  0  0  0  0  0  0  0  0  0  0
    8.9282    4.5000    0.0000 C   0  0  0  0  0  0  0  0  0  0  0  0
   14.9904    1.0000    0.0000 C   0  0  0  0  0  0  0  0  0  0  0  0
   17.3564   -0.6340    0.0000 C   0  0  0  0  0  0  0  0  0  0  0  0
   14.1244    1.5000    0.0000 C   0  0  0  0  0  0  0  0  0  0  0  0
    9.7942    4.0000    0.0000 C   0  0  0  0  0  0  0  0  0  0  0  0
    8.9282    5.5000    0.0000 C   0  0  0  0  0  0  0  0  0  0  0  0
   14.1244    2.5000    0.0000 C   0  0  0  0  0  0  0  0  0  0  0  0
   10.6603    4.5000    0.0000 C   0  0  0  0  0  0  0  0  0  0  0  0
   13.2583    1.0000    0.0000 C   0  0  0  0  0  0  0  0  0  0  0  0
   13.2583    3.0000    0.0000 C   0  0  0  0  0  0  0  0  0  0  0  0
   11.5263    4.0000    0.0000 C   0  0  0  0  0  0  0  0  0  0  0  0
   12.3923    4.5000    0.0000 C   0  0  0  0  0  0  0  0  0  0  0  0
   13.2583    4.0000    0.0000 C   0  0  0  0  0  0  0  0  0  0  0  0
   12.3923    5.5000    0.0000 C   0  0  0  0  0  0  0  0  0  0  0  0
   14.9904   -4.6200    0.0000 H   0  0  0  0  0  0  0  0  0  0  0  0
   14.6613   -4.8100    0.0000 H   0  0  0  0  0  0  0  0  0  0  0  0
    6.8671    3.3100    0.0000 H   0  0  0  0  0  0  0  0  0  0  0  0
    7.7331    1.8100    0.0000 H   0  0  0  0  0  0  0  0  0  0  0  0
   15.5273   -3.3100    0.0000 H   0  0  0  0  0  0  0  0  0  0  0  0
    8.5991    0.6900    0.0000 H   0  0  0  0  0  0  0  0  0  0  0  0
    5.7932    0.3100    0.0000 H   0  0  0  0  0  0  0  0  0  0  0  0
   13.2583   -4.6200    0.0000 H   0  0  0  0  0  0  0  0  0  0  0  0
    8.5991    0.3100    0.0000 H   0  0  0  0  0  0  0  0  0  0  0  0
    7.7331   -0.8100    0.0000 H   0  0  0  0  0  0  0  0  0  0  0  0
    6.0010    2.1900    0.0000 H   0  0  0  0  0  0  0  0  0  0  0  0
   13.2583   -2.3800    0.0000 H   0  0  0  0  0  0  0  0  0  0  0  0
   16.1855   -3.6900    0.0000 H   0  0  0  0  0  0  0  0  0  0  0  0
    4.5981    2.3800    0.0000 H   0  0  0  0  0  0  0  0  0  0  0  0
    6.3301    4.6200    0.0000 H   0  0  0  0  0  0  0  0  0  0  0  0
   18.1254   -4.8100    0.0000 H   0  0  0  0  0  0  0  0  0  0  0  0
    4.5981    4.6200    0.0000 H   0  0  0  0  0  0  0  0  0  0  0  0
   18.9914   -3.6900    0.0000 H   0  0  0  0  0  0  0  0  0  0  0  0
   18.4545   -2.3800    0.0000 H   0  0  0  0  0  0  0  0  0  0  0  0
   17.0515   -2.1900    0.0000 H   0  0  0  0  0  0  0  0  0  0  0  0
    5.2521    0.0826    0.0000 H   0  0  0  0  0  0  0  0  0  0  0  0
    4.8535   -0.6077    0.0000 H   0  0  0  0  0  0  0  0  0  0  0  0
    4.5981   -1.3800    0.0000 H   0  0  0  0  0  0  0  0  0  0  0  0
   11.7817   -2.3923    0.0000 H   0  0  0  0  0  0  0  0  0  0  0  0
   12.1803   -3.0826    0.0000 H   0  0  0  0  0  0  0  0  0  0  0  0
    4.5981   -3.6200    0.0000 H   0  0  0  0  0  0  0  0  0  0  0  0
    3.1951   -3.8100    0.0000 H   0  0  0  0  0  0  0  0  0  0  0  0
    3.1215    4.6077    0.0000 H   0  0  0  0  0  0  0  0  0  0  0  0
    3.5200    3.9174    0.0000 H   0  0  0  0  0  0  0  0  0  0  0  0
    2.8660   -3.6200    0.0000 H   0  0  0  0  0  0  0  0  0  0  0  0
    2.8660   -1.3800    0.0000 H   0  0  0  0  0  0  0  0  0  0  0  0
   17.3764   -0.9174    0.0000 H   0  0  0  0  0  0  0  0  0  0  0  0
   16.9779   -1.6077    0.0000 H   0  0  0  0  0  0  0  0  0  0  0  0
   13.5874   -5.8100    0.0000 H   0  0  0  0  0  0  0  0  0  0  0  0
   16.4670   -0.6077    0.0000 H   0  0  0  0  0  0  0  0  0  0  0  0
   16.0685    0.0826    0.0000 H   0  0  0  0  0  0  0  0  0  0  0  0
    9.4651    1.1900    0.0000 H   0  0  0  0  0  0  0  0  0  0  0  0
   11.8554   -4.1900    0.0000 H   0  0  0  0  0  0  0  0  0  0  0  0
    7.7331   -1.8100    0.0000 H   0  0  0  0  0  0  0  0  0  0  0  0
    8.9282   -1.1200    0.0000 H   0  0  0  0  0  0  0  0  0  0  0  0
    4.9272    1.1900    0.0000 H   0  0  0  0  0  0  0  0  0  0  0  0
    3.1951    2.8100    0.0000 H   0  0  0  0  0  0  0  0  0  0  0  0
   18.1254   -5.8100    0.0000 H   0  0  0  0  0  0  0  0  0  0  0  0
   14.8564   -0.8800    0.0000 H   0  0  0  0  0  0  0  0  0  0  0  0
   14.2364   -1.5000    0.0000 H   0  0  0  0  0  0  0  0  0  0  0  0
   14.8564   -2.1200    0.0000 H   0  0  0  0  0  0  0  0  0  0  0  0
   19.8574   -4.1900    0.0000 H   0  0  0  0  0  0  0  0  0  0  0  0
   19.8574   -2.8100    0.0000 H   0  0  0  0  0  0  0  0  0  0  0  0
   17.1664   -2.0369    0.0000 H   0  0  0  0  0  0  0  0  0  0  0  0
   14.3798    0.1077    0.0000 H   0  0  0  0  0  0  0  0  0  0  0  0
   14.7783   -0.5826    0.0000 H   0  0  0  0  0  0  0  0  0  0  0  0
    7.6637    3.5251    0.0000 H   0  0  0  0  0  0  0  0  0  0  0  0
    8.4607    3.5251    0.0000 H   0  0  0  0  0  0  0  0  0  0  0  0
    2.3100   -0.9631    0.0000 H   0  0  0  0  0  0  0  0  0  0  0  0
    1.4631   -1.1900    0.0000 H   0  0  0  0  0  0  0  0  0  0  0  0
    1.6900   -2.0369    0.0000 H   0  0  0  0  0  0  0  0  0  0  0  0
   11.8554   -1.1900    0.0000 H   0  0  0  0  0  0  0  0  0  0  0  0
    5.4641   -4.1200    0.0000 H   0  0  0  0  0  0  0  0  0  0  0  0
    4.2690   -4.8100    0.0000 H   0  0  0  0  0  0  0  0  0  0  0  0
    3.1951    5.8100    0.0000 H   0  0  0  0  0  0  0  0  0  0  0  0
    2.0000   -4.1200    0.0000 H   0  0  0  0  0  0  0  0  0  0  0  0
   18.4545   -0.3800    0.0000 H   0  0  0  0  0  0  0  0  0  0  0  0
   15.5273    1.3100    0.0000 H   0  0  0  0  0  0  0  0  0  0  0  0
   17.9764   -0.6340    0.0000 H   0  0  0  0  0  0  0  0  0  0  0  0
   17.0464   -0.0970    0.0000 H   0  0  0  0  0  0  0  0  0  0  0  0
    9.7942    3.3800    0.0000 H   0  0  0  0  0  0  0  0  0  0  0  0
    9.5482    5.5000    0.0000 H   0  0  0  0  0  0  0  0  0  0  0  0
    8.9282    6.1200    0.0000 H   0  0  0  0  0  0  0  0  0  0  0  0
    8.3082    5.5000    0.0000 H   0  0  0  0  0  0  0  0  0  0  0  0
   14.7349    2.3923    0.0000 H   0  0  0  0  0  0  0  0  0  0  0  0
   14.3364    3.0826    0.0000 H   0  0  0  0  0  0  0  0  0  0  0  0
   11.0588    4.9750    0.0000 H   0  0  0  0  0  0  0  0  0  0  0  0
   10.2617    4.9750    0.0000 H   0  0  0  0  0  0  0  0  0  0  0  0
   12.9483    1.5369    0.0000 H   0  0  0  0  0  0  0  0  0  0  0  0
   12.7214    0.6900    0.0000 H   0  0  0  0  0  0  0  0  0  0  0  0
   13.5683    0.4631    0.0000 H   0  0  0  0  0  0  0  0  0  0  0  0
   12.6477    3.1077    0.0000 H   0  0  0  0  0  0  0  0  0  0  0  0
   13.0463    2.4174    0.0000 H   0  0  0  0  0  0  0  0  0  0  0  0
   11.1278    3.5251    0.0000 H   0  0  0  0  0  0  0  0  0  0  0  0
   11.9248    3.5251    0.0000 H   0  0  0  0  0  0  0  0  0  0  0  0
   13.7953    4.3100    0.0000 H   0  0  0  0  0  0  0  0  0  0  0  0
   13.0123    5.5000    0.0000 H   0  0  0  0  0  0  0  0  0  0  0  0
   12.3923    6.1200    0.0000 H   0  0  0  0  0  0  0  0  0  0  0  0
   11.7723    5.5000    0.0000 H   0  0  0  0  0  0  0  0  0  0  0  0
  1 29  1  0  0  0  0
  1 30  1  0  0  0  0
  2 27  1  0  0  0  0
  2 39  1  0  0  0  0
  3 30  1  0  0  0  0
  3 33  1  0  0  0  0
  4 31  1  0  0  0  0
  4 38  1  0  0  0  0
  5 41  1  0  0  0  0
  5 43  1  0  0  0  0
  6 39  1  0  0  0  0
  6 46  1  0  0  0  0
  7 31  1  0  0  0  0
  7 48  1  0  0  0  0
  8 47  1  0  0  0  0
  8 49  1  0  0  0  0
  9 28  1  0  0  0  0
  9110  1  0  0  0  0
 10 32  1  0  0  0  0
 10113  1  0  0  0  0
 11 41  1  0  0  0  0
 11 61  1  0  0  0  0
 12 34  1  0  0  0  0
 12114  1  0  0  0  0
 13 35  1  0  0  0  0
 13116  1  0  0  0  0
 14 36  1  0  0  0  0
 14115  1  0  0  0  0
 15 37  1  0  0  0  0
 15117  1  0  0  0  0
 16 49  1  0  0  0  0
 16 55  1  0  0  0  0
 17 40  1  0  0  0  0
 17118  1  0  0  0  0
 18 42  1  0  0  0  0
 18119  1  0  0  0  0
 19 44  1  0  0  0  0
 19123  1  0  0  0  0
 20 45  1  0  0  0  0
 20124  1  0  0  0  0
 21 50  1  0  0  0  0
 21133  1  0  0  0  0
 22 51  1  0  0  0  0
 22134  1  0  0  0  0
 23 52  1  0  0  0  0
 23135  1  0  0  0  0
 24 53  1  0  0  0  0
 24136  1  0  0  0  0
 25 54  1  0  0  0  0
 25137  1  0  0  0  0
 26 56  1  0  0  0  0
 26138  1  0  0  0  0
 27 28  1  0  0  0  0
 27 31  1  0  0  0  0
 27 77  1  0  0  0  0
 28 34  1  0  0  0  0
 28 78  1  0  0  0  0
 29 37  1  0  0  0  0
 29 41  1  0  0  0  0
 29 79  1  0  0  0  0
 30 32  1  0  0  0  0
 30 80  1  0  0  0  0
 31 81  1  0  0  0  0
 32 35  1  0  0  0  0
 32 82  1  0  0  0  0
 33 36  1  0  0  0  0
 33 47  1  0  0  0  0
 33 83  1  0  0  0  0
 34 38  1  0  0  0  0
 34 84  1  0  0  0  0
 35 36  1  0  0  0  0
 35 85  1  0  0  0  0
 36 86  1  0  0  0  0
 37 40  1  0  0  0  0
 37 87  1  0  0  0  0
 38 50  1  0  0  0  0
 38 88  1  0  0  0  0
 39 42  1  0  0  0  0
 39 89  1  0  0  0  0
 40 43  1  0  0  0  0
 40 90  1  0  0  0  0
 41 91  1  0  0  0  0
 42 44  1  0  0  0  0
 42 92  1  0  0  0  0
 43 53  1  0  0  0  0
 43 93  1  0  0  0  0
 44 45  1  0  0  0  0
 44 94  1  0  0  0  0
 45 46  1  0  0  0  0
 45 95  1  0  0  0  0
 46 56  1  0  0  0  0
 46 96  1  0  0  0  0
 47 97  1  0  0  0  0
 47 98  1  0  0  0  0
 48 57  1  0  0  0  0
 48 58  1  0  0  0  0
 48 59  1  0  0  0  0
 49 51  1  0  0  0  0
 49 99  1  0  0  0  0
 50100  1  0  0  0  0
 50101  1  0  0  0  0
 51 52  1  0  0  0  0
 51102  1  0  0  0  0
 52 54  1  0  0  0  0
 52103  1  0  0  0  0
 53104  1  0  0  0  0
 53105  1  0  0  0  0
 54 55  1  0  0  0  0
 54106  1  0  0  0  0
 55 62  1  0  0  0  0
 55107  1  0  0  0  0
 56108  1  0  0  0  0
 56109  1  0  0  0  0
 57 60  1  0  0  0  0
 57111  1  0  0  0  0
 57112  1  0  0  0  0
 58120  1  0  0  0  0
 58121  1  0  0  0  0
 58122  1  0  0  0  0
 59 65  2  0  0  0  0
 59125  1  0  0  0  0
 60 64  1  0  0  0  0
 60126  1  0  0  0  0
 60127  1  0  0  0  0
 61 63  1  0  0  0  0
 61128  1  0  0  0  0
 61129  1  0  0  0  0
 62130  1  0  0  0  0
 62131  1  0  0  0  0
 62132  1  0  0  0  0
 63 67  2  0  0  0  0
 63 68  1  0  0  0  0
 64 66  2  0  0  0  0
 64139  1  0  0  0  0
 65140  1  0  0  0  0
 65141  1  0  0  0  0
 66 69  1  0  0  0  0
 66 71  1  0  0  0  0
 67 70  1  0  0  0  0
 67142  1  0  0  0  0
 68143  1  0  0  0  0
 68144  1  0  0  0  0
 68145  1  0  0  0  0
 69 72  1  0  0  0  0
 69146  1  0  0  0  0
 69147  1  0  0  0  0
 70 73  1  0  0  0  0
 70148  1  0  0  0  0
 70149  1  0  0  0  0
 71150  1  0  0  0  0
 71151  1  0  0  0  0
 71152  1  0  0  0  0
 72 75  1  0  0  0  0
 72153  1  0  0  0  0
 72154  1  0  0  0  0
 73 74  1  0  0  0  0
 73155  1  0  0  0  0
 73156  1  0  0  0  0
 74 75  2  0  0  0  0
 74 76  1  0  0  0  0
 75157  1  0  0  0  0
 76158  1  0  0  0  0
 76159  1  0  0  0  0
 76160  1  0  0  0  0
M  END
> <PUBCHEM_COMPOUND_CID>
131751201

> <PUBCHEM_COMPOUND_CANONICALIZED>
1

> <PUBCHEM_CACTVS_COMPLEXITY>
1860

> <PUBCHEM_CACTVS_HBOND_ACCEPTOR>
26

> <PUBCHEM_CACTVS_HBOND_DONOR>
16

> <PUBCHEM_CACTVS_ROTATABLE_BOND>
25

> <PUBCHEM_CACTVS_SUBSKEYS>
AAADcfB8PgAAAAAAAAAAAAAAAAAAAAAAAAAkSJEiQAAAAAAAAAAAGgAACAAADFSwgAMCCAAABgCAAiBCAAAAAAAgAAAICAAAAAgRFAIAIQAiUAAFgAAPIAPAYAwMAAAAAAAAAAAAAAAAAAAAAAAAAAAAAA==

> <PUBCHEM_IUPAC_OPENEYE_NAME>
2-[[6-[2-[(2E,6Z,10E)-14-[4,5-dihydroxy-6-(hydroxymethyl)-3-[3,4,5-trihydroxy-6-(hydroxymethyl)tetrahydropyran-2-yl]oxy-tetrahydropyran-2-yl]oxy-2,6,10,14-tetramethyl-hexadeca-2,6,10,15-tetraenoxy]-4,5-dihydroxy-6-(hydroxymethyl)tetrahydropyran-3-yl]oxy-3,4,5-trihydroxy-tetrahydropyran-2-yl]methoxy]-6-methyl-tetrahydropyran-3,4,5-triol

> <PUBCHEM_IUPAC_CAS_NAME>
2-[[6-[[2-[(2E,6Z,10E)-14-[[4,5-dihydroxy-6-(hydroxymethyl)-3-[[3,4,5-trihydroxy-6-(hydroxymethyl)-2-oxanyl]oxy]-2-oxanyl]oxy]-2,6,10,14-tetramethylhexadeca-2,6,10,15-tetraenoxy]-4,5-dihydroxy-6-(hydroxymethyl)-3-oxanyl]oxy]-3,4,5-trihydroxy-2-oxanyl]methoxy]-6-methyloxane-3,4,5-triol

> <PUBCHEM_IUPAC_NAME_MARKUP>
2-[[6-[2-[(2<I>E</I>,6<I>Z</I>,10<I>E</I>)-14-[4,5-dihydroxy-6-(hydroxymethyl)-3-[3,4,5-trihydroxy-6-(hydroxymethyl)oxan-2-yl]oxyoxan-2-yl]oxy-2,6,10,14-tetramethylhexadeca-2,6,10,15-tetraenoxy]-4,5-dihydroxy-6-(hydroxymethyl)oxan-3-yl]oxy-3,4,5-trihydroxyoxan-2-yl]methoxy]-6-methyloxane-3,4,5-triol

> <PUBCHEM_IUPAC_NAME>
2-[[6-[2-[(2E,6Z,10E)-14-[4,5-dihydroxy-6-(hydroxymethyl)-3-[3,4,5-trihydroxy-6-(hydroxymethyl)oxan-2-yl]oxyoxan-2-yl]oxy-2,6,10,14-tetramethylhexadeca-2,6,10,15-tetraenoxy]-4,5-dihydroxy-6-(hydroxymethyl)oxan-3-yl]oxy-3,4,5-trihydroxyoxan-2-yl]methoxy]-6-methyloxane-3,4,5-triol

> <PUBCHEM_IUPAC_SYSTEMATIC_NAME>
2-[[6-[6-(hydroxymethyl)-2-[(2E,6Z,10E)-14-[6-(hydroxymethyl)-3-[6-(hydroxymethyl)-3,4,5-tris(oxidanyl)oxan-2-yl]oxy-4,5-bis(oxidanyl)oxan-2-yl]oxy-2,6,10,14-tetramethyl-hexadeca-2,6,10,15-tetraenoxy]-4,5-bis(oxidanyl)oxan-3-yl]oxy-3,4,5-tris(oxidanyl)oxan-2-yl]methoxy]-6-methyl-oxane-3,4,5-triol

> <PUBCHEM_IUPAC_TRADITIONAL_NAME>
2-[[6-[2-[(2E,6Z,10E)-14-[4,5-dihydroxy-6-methylol-3-(3,4,5-trihydroxy-6-methylol-tetrahydropyran-2-yl)oxy-tetrahydropyran-2-yl]oxy-2,6,10,14-tetramethyl-hexadeca-2,6,10,15-tetraenoxy]-4,5-dihydroxy-6-methylol-tetrahydropyran-3-yl]oxy-3,4,5-trihydroxy-tetrahydropyran-2-yl]methoxy]-6-methyl-tetrahydropyran-3,4,5-triol

> <PUBCHEM_IUPAC_INCHI>
InChI=1S/C50H84O26/c1-7-50(6,76-49-44(39(63)33(57)28(19-53)72-49)75-46-41(65)36(60)31(55)26(17-51)70-46)16-10-15-23(3)12-8-11-22(2)13-9-14-24(4)20-67-48-43(38(62)32(56)27(18-52)71-48)74-47-42(66)37(61)34(58)29(73-47)21-68-45-40(64)35(59)30(54)25(5)69-45/h7,11,14-15,25-49,51-66H,1,8-10,12-13,16-21H2,2-6H3/b22-11-,23-15+,24-14+

> <PUBCHEM_IUPAC_INCHIKEY>
AKJRMUURRHAKDT-DRPMNEMASA-N

> <PUBCHEM_XLOGP3_AA>
-2.8

> <PUBCHEM_EXACT_MASS>
1100.52508278

> <PUBCHEM_MOLECULAR_FORMULA>
C50H84O26

> <PUBCHEM_MOLECULAR_WEIGHT>
1101.2

> <PUBCHEM_SMILES>
CC1C(C(C(C(O1)OCC2C(C(C(C(O2)OC3C(C(C(OC3OC/C(=C/CC/C(=C\CC/C(=C/CCC(C)(C=C)OC4C(C(C(C(O4)CO)O)O)OC5C(C(C(C(O5)CO)O)O)O)/C)/C)/C)CO)O)O)O)O)O)O)O)O

> <PUBCHEM_CONNECTIVITY_SMILES>
CC1C(C(C(C(O1)OCC2C(C(C(C(O2)OC3C(C(C(OC3OCC(=CCCC(=CCCC(=CCCC(C)(C=C)OC4C(C(C(C(O4)CO)O)O)OC5C(C(C(C(O5)CO)O)O)O)C)C)C)CO)O)O)O)O)O)O)O)O

> <PUBCHEM_CACTVS_TPSA>
416

> <PUBCHEM_MONOISOTOPIC_WEIGHT>
1100.52508278

> <PUBCHEM_TOTAL_CHARGE>
0

> <PUBCHEM_HEAVY_ATOM_COUNT>
76

> <PUBCHEM_ATOM_DEF_STEREO_COUNT>
0

> <PUBCHEM_ATOM_UDEF_STEREO_COUNT>
26

> <PUBCHEM_BOND_DEF_STEREO_COUNT>
3

> <PUBCHEM_BOND_UDEF_STEREO_COUNT>
0

> <PUBCHEM_ISOTOPIC_ATOM_COUNT>
0

> <PUBCHEM_COMPONENT_COUNT>
1

> <PUBCHEM_CACTVS_TAUTO_COUNT>
-1

> <PUBCHEM_COORDINATE_TYPE>
1
5
255

> <PUBCHEM_BONDANNOTATIONS>
29  1  3
30  1  3
32  10  3
41  11  3
34  12  3
35  13  3
36  14  3
37  15  3
40  17  3
42  18  3
44  19  3
27  2  3
39  2  3
45  20  3
51  22  3
52  23  3
54  25  3
33  47  3
38  50  3
43  53  3
46  56  3
48  58  3
55  62  3
31  7  3
49  8  3
28  9  3

$$$$
