5315947
  -OEChem-01202622312D

 44 46  0     0  0  0  0  0  0999 V2000
    7.2901    0.4397    0.0000 O   0  0  0  0  0  0  0  0  0  0  0  0
    3.7702    0.4397    0.0000 O   0  0  0  0  0  0  0  0  0  0  0  0
    7.2785   -2.6296    0.0000 O   0  0  0  0  0  0  0  0  0  0  0  0
    5.5301   -2.5950    0.0000 O   0  0  0  0  0  0  0  0  0  0  0  0
    2.0000    0.4292    0.0000 O   0  0  0  0  0  0  0  0  0  0  0  0
    8.1962   -0.0742    0.0000 C   0  0  0  0  0  0  0  0  0  0  0  0
    5.5301    1.4050    0.0000 C   0  0  0  0  0  0  0  0  0  0  0  0
    5.5301    0.4050    0.0000 C   0  0  0  0  0  0  0  0  0  0  0  0
    6.3961   -0.0950    0.0000 C   0  0  0  0  0  0  0  0  0  0  0  0
    8.1962   -1.1158    0.0000 C   0  0  0  0  0  0  0  0  0  0  0  0
    6.3961   -1.0950    0.0000 C   0  0  0  0  0  0  0  0  0  0  0  0
    7.2901   -1.6297    0.0000 C   0  0  0  0  0  0  0  0  0  0  0  0
    4.6641   -0.0950    0.0000 C   0  0  0  0  0  0  0  0  0  0  0  0
    9.1962   -0.0703    0.0000 C   0  0  0  0  0  0  0  0  0  0  0  0
    8.6928    0.7938    0.0000 C   0  0  0  0  0  0  0  0  0  0  0  0
    5.5301   -1.5950    0.0000 C   0  0  0  0  0  0  0  0  0  0  0  0
    4.6641   -1.0950    0.0000 C   0  0  0  0  0  0  0  0  0  0  0  0
    4.5301    1.4050    0.0000 C   0  0  0  0  0  0  0  0  0  0  0  0
    6.5301    1.4050    0.0000 C   0  0  0  0  0  0  0  0  0  0  0  0
    5.5301    2.4050    0.0000 C   0  0  0  0  0  0  0  0  0  0  0  0
    3.7702   -1.6297    0.0000 C   0  0  0  0  0  0  0  0  0  0  0  0
    2.8641   -1.1158    0.0000 C   0  0  0  0  0  0  0  0  0  0  0  0
    2.8641   -0.0742    0.0000 C   0  0  0  0  0  0  0  0  0  0  0  0
    4.6641    2.9050    0.0000 C   0  0  0  0  0  0  0  0  0  0  0  0
    8.4052   -1.6995    0.0000 H   0  0  0  0  0  0  0  0  0  0  0  0
    8.8070   -1.0097    0.0000 H   0  0  0  0  0  0  0  0  0  0  0  0
    9.1985   -0.6903    0.0000 H   0  0  0  0  0  0  0  0  0  0  0  0
    9.8162   -0.0679    0.0000 H   0  0  0  0  0  0  0  0  0  0  0  0
    9.1938    0.5497    0.0000 H   0  0  0  0  0  0  0  0  0  0  0  0
    9.2310    0.4858    0.0000 H   0  0  0  0  0  0  0  0  0  0  0  0
    9.0008    1.3319    0.0000 H   0  0  0  0  0  0  0  0  0  0  0  0
    8.1547    1.1017    0.0000 H   0  0  0  0  0  0  0  0  0  0  0  0
    4.5301    2.0250    0.0000 H   0  0  0  0  0  0  0  0  0  0  0  0
    3.9101    1.4050    0.0000 H   0  0  0  0  0  0  0  0  0  0  0  0
    4.5301    0.7850    0.0000 H   0  0  0  0  0  0  0  0  0  0  0  0
    6.5301    0.7850    0.0000 H   0  0  0  0  0  0  0  0  0  0  0  0
    7.1501    1.4050    0.0000 H   0  0  0  0  0  0  0  0  0  0  0  0
    6.5301    2.0250    0.0000 H   0  0  0  0  0  0  0  0  0  0  0  0
    6.0671    2.7150    0.0000 H   0  0  0  0  0  0  0  0  0  0  0  0
    3.7773   -2.2496    0.0000 H   0  0  0  0  0  0  0  0  0  0  0  0
    2.3284   -1.4279    0.0000 H   0  0  0  0  0  0  0  0  0  0  0  0
    4.9932   -2.9050    0.0000 H   0  0  0  0  0  0  0  0  0  0  0  0
    4.6641    3.5250    0.0000 H   0  0  0  0  0  0  0  0  0  0  0  0
    4.1272    2.5950    0.0000 H   0  0  0  0  0  0  0  0  0  0  0  0
  1  6  1  0  0  0  0
  1  9  1  0  0  0  0
  2 13  1  0  0  0  0
  2 23  1  0  0  0  0
  3 12  2  0  0  0  0
  4 16  1  0  0  0  0
  4 42  1  0  0  0  0
  5 23  2  0  0  0  0
  6 10  1  0  0  0  0
  6 14  1  0  0  0  0
  6 15  1  0  0  0  0
  7  8  1  0  0  0  0
  7 18  1  0  0  0  0
  7 19  1  0  0  0  0
  7 20  1  0  0  0  0
  8  9  1  0  0  0  0
  8 13  2  0  0  0  0
  9 11  2  0  0  0  0
 10 12  1  0  0  0  0
 10 25  1  0  0  0  0
 10 26  1  0  0  0  0
 11 12  1  0  0  0  0
 11 16  1  0  0  0  0
 13 17  1  0  0  0  0
 14 27  1  0  0  0  0
 14 28  1  0  0  0  0
 14 29  1  0  0  0  0
 15 30  1  0  0  0  0
 15 31  1  0  0  0  0
 15 32  1  0  0  0  0
 16 17  2  0  0  0  0
 17 21  1  0  0  0  0
 18 33  1  0  0  0  0
 18 34  1  0  0  0  0
 18 35  1  0  0  0  0
 19 36  1  0  0  0  0
 19 37  1  0  0  0  0
 19 38  1  0  0  0  0
 20 24  2  0  0  0  0
 20 39  1  0  0  0  0
 21 22  2  0  0  0  0
 21 40  1  0  0  0  0
 22 23  1  0  0  0  0
 22 41  1  0  0  0  0
 24 43  1  0  0  0  0
 24 44  1  0  0  0  0
M  END
> <PUBCHEM_COMPOUND_CID>
5315947

> <PUBCHEM_COMPOUND_CANONICALIZED>
1

> <PUBCHEM_CACTVS_COMPLEXITY>
603

> <PUBCHEM_CACTVS_HBOND_ACCEPTOR>
5

> <PUBCHEM_CACTVS_HBOND_DONOR>
1

> <PUBCHEM_CACTVS_ROTATABLE_BOND>
2

> <PUBCHEM_CACTVS_SUBSKEYS>
AAADceB4OAAAAAAAAAAAAAAAAAAAAAAAAAA0QIAAAAAAAACRAAAAGgAACAAADkSAmAACDoAABgCIAqDSCAACCAAkIAAIiAEECMgMJzaGNBqCe2Cl4BUIuYeI7PzPoAACCAAIAABAAAQQABAAAAAAAAAAAA==

> <PUBCHEM_IUPAC_OPENEYE_NAME>
10-(1,1-dimethylallyl)-5-hydroxy-2,2-dimethyl-3H-pyrano[3,2-g]chromene-4,8-dione

> <PUBCHEM_IUPAC_CAS_NAME>
5-hydroxy-2,2-dimethyl-10-(2-methylbut-3-en-2-yl)-3H-pyrano[3,2-g][1]benzopyran-4,8-dione

> <PUBCHEM_IUPAC_NAME_MARKUP>
5-hydroxy-2,2-dimethyl-10-(2-methylbut-3-en-2-yl)-3<I>H</I>-pyrano[3,2-g]chromene-4,8-dione

> <PUBCHEM_IUPAC_NAME>
5-hydroxy-2,2-dimethyl-10-(2-methylbut-3-en-2-yl)-3H-pyrano[3,2-g]chromene-4,8-dione

> <PUBCHEM_IUPAC_SYSTEMATIC_NAME>
2,2-dimethyl-10-(2-methylbut-3-en-2-yl)-5-oxidanyl-3H-pyrano[3,2-g]chromene-4,8-dione

> <PUBCHEM_IUPAC_TRADITIONAL_NAME>
10-(1,1-dimethylallyl)-5-hydroxy-2,2-dimethyl-3H-pyrano[3,2-g]chromene-4,8-quinone

> <PUBCHEM_IUPAC_INCHI>
InChI=1S/C19H20O5/c1-6-18(2,3)14-16-10(7-8-12(21)23-16)15(22)13-11(20)9-19(4,5)24-17(13)14/h6-8,22H,1,9H2,2-5H3

> <PUBCHEM_IUPAC_INCHIKEY>
RDROOFQFFWIIDK-UHFFFAOYSA-N

> <PUBCHEM_XLOGP3_AA>
4.1

> <PUBCHEM_EXACT_MASS>
328.13107373

> <PUBCHEM_MOLECULAR_FORMULA>
C19H20O5

> <PUBCHEM_MOLECULAR_WEIGHT>
328.4

> <PUBCHEM_SMILES>
CC1(CC(=O)C2=C(O1)C(=C3C(=C2O)C=CC(=O)O3)C(C)(C)C=C)C

> <PUBCHEM_CONNECTIVITY_SMILES>
CC1(CC(=O)C2=C(O1)C(=C3C(=C2O)C=CC(=O)O3)C(C)(C)C=C)C

> <PUBCHEM_CACTVS_TPSA>
72.8

> <PUBCHEM_MONOISOTOPIC_WEIGHT>
328.13107373

> <PUBCHEM_TOTAL_CHARGE>
0

> <PUBCHEM_HEAVY_ATOM_COUNT>
24

> <PUBCHEM_ATOM_DEF_STEREO_COUNT>
0

> <PUBCHEM_ATOM_UDEF_STEREO_COUNT>
0

> <PUBCHEM_BOND_DEF_STEREO_COUNT>
0

> <PUBCHEM_BOND_UDEF_STEREO_COUNT>
0

> <PUBCHEM_ISOTOPIC_ATOM_COUNT>
0

> <PUBCHEM_COMPONENT_COUNT>
1

> <PUBCHEM_CACTVS_TAUTO_COUNT>
-1

> <PUBCHEM_COORDINATE_TYPE>
1
5
255

> <PUBCHEM_BONDANNOTATIONS>
11  16  8
13  17  8
16  17  8
17  21  8
2  13  8
2  23  8
21  22  8
22  23  8
8  13  8
8  9  8
9  11  8

$$$$
