5458600
  -OEChem-01202622332D

 65 70  0     1  0  0  0  0  0999 V2000
    5.4275   -1.4272    0.0000 O   0  0  0  0  0  0  0  0  0  0  0  0
    3.3389    2.2436    0.0000 O   0  0  0  0  0  0  0  0  0  0  0  0
    8.1221   -1.9688    0.0000 O   0  0  0  0  0  0  0  0  0  0  0  0
    6.3380    2.0797    0.0000 O   0  0  0  0  0  0  0  0  0  0  0  0
    4.4784    3.1222    0.0000 O   0  0  0  0  0  0  0  0  0  0  0  0
    4.5896   -1.9549    0.0000 O   0  0  0  0  0  0  0  0  0  0  0  0
    7.2161   -3.4896    0.0000 O   0  0  0  0  0  0  0  0  0  0  0  0
   10.0429    0.7977    0.0000 O   0  0  0  0  0  0  0  0  0  0  0  0
    6.3380   -0.9203    0.0000 C   0  0  1  0  0  0  0  0  0  0  0  0
    5.4720   -0.4203    0.0000 C   0  0  1  0  0  0  0  0  0  0  0  0
    5.4720    0.5797    0.0000 C   0  0  3  0  0  0  0  0  0  0  0  0
    7.2040   -0.4203    0.0000 C   0  0  1  0  0  0  0  0  0  0  0  0
    4.5781    1.1144    0.0000 C   0  0  2  0  0  0  0  0  0  0  0  0
    6.3220   -1.9618    0.0000 C   0  0  1  0  0  0  0  0  0  0  0  0
    3.6720    0.6005    0.0000 C   0  0  3  0  0  0  0  0  0  0  0  0
    6.3380    1.0797    0.0000 C   0  0  2  0  0  0  0  0  0  0  0  0
    7.2040    0.5797    0.0000 C   0  0  0  0  0  0  0  0  0  0  0  0
    4.5781   -0.9550    0.0000 C   0  0  0  0  0  0  0  0  0  0  0  0
    4.3680    2.1283    0.0000 C   0  0  2  0  0  0  0  0  0  0  0  0
    3.6720   -0.4411    0.0000 C   0  0  0  0  0  0  0  0  0  0  0  0
    8.1141   -0.9272    0.0000 C   0  0  2  0  0  0  0  0  0  0  0  0
    2.9097    1.3013    0.0000 C   0  0  0  0  0  0  0  0  0  0  0  0
    6.1221   -1.5461    0.0000 C   0  0  0  0  0  0  0  0  0  0  0  0
    8.0701    0.0797    0.0000 C   0  0  0  0  0  0  0  0  0  0  0  0
    5.4479    1.6077    0.0000 C   0  0  0  0  0  0  0  0  0  0  0  0
    7.2200   -2.4896    0.0000 C   0  0  0  0  0  0  0  0  0  0  0  0
    5.3473    2.3303    0.0000 C   0  0  0  0  0  0  0  0  0  0  0  0
    8.9742   -0.4172    0.0000 C   0  0  0  0  0  0  0  0  0  0  0  0
    2.0000    1.7166    0.0000 C   0  0  0  0  0  0  0  0  0  0  0  0
    2.2336    0.5645    0.0000 C   0  0  0  0  0  0  0  0  0  0  0  0
    9.8924   -0.8133    0.0000 C   0  0  0  0  0  0  0  0  0  0  0  0
    9.0673    0.5785    0.0000 C   0  0  0  0  0  0  0  0  0  0  0  0
   10.5529   -0.0625    0.0000 C   0  0  0  0  0  0  0  0  0  0  0  0
    6.0089    0.2697    0.0000 H   0  0  0  0  0  0  0  0  0  0  0  0
    5.8886   -2.6930    0.0000 H   0  0  0  0  0  0  0  0  0  0  0  0
    3.1043    0.3512    0.0000 H   0  0  0  0  0  0  0  0  0  0  0  0
    5.8011    1.3897    0.0000 H   0  0  0  0  0  0  0  0  0  0  0  0
    7.8146    0.4720    0.0000 H   0  0  0  0  0  0  0  0  0  0  0  0
    7.4161    1.1623    0.0000 H   0  0  0  0  0  0  0  0  0  0  0  0
    3.0611   -0.3350    0.0000 H   0  0  0  0  0  0  0  0  0  0  0  0
    3.4629   -1.0248    0.0000 H   0  0  0  0  0  0  0  0  0  0  0  0
    8.6539   -1.2320    0.0000 H   0  0  0  0  0  0  0  0  0  0  0  0
    5.5852   -1.8561    0.0000 H   0  0  0  0  0  0  0  0  0  0  0  0
    6.4322   -2.0830    0.0000 H   0  0  0  0  0  0  0  0  0  0  0  0
    6.6590   -1.2360    0.0000 H   0  0  0  0  0  0  0  0  0  0  0  0
    8.3801   -0.4573    0.0000 H   0  0  0  0  0  0  0  0  0  0  0  0
    8.6070    0.3897    0.0000 H   0  0  0  0  0  0  0  0  0  0  0  0
    7.7601    0.6166    0.0000 H   0  0  0  0  0  0  0  0  0  0  0  0
    5.7538    1.0684    0.0000 H   0  0  0  0  0  0  0  0  0  0  0  0
    5.9872    1.9135    0.0000 H   0  0  0  0  0  0  0  0  0  0  0  0
    5.1421    2.1470    0.0000 H   0  0  0  0  0  0  0  0  0  0  0  0
    5.4726    1.7231    0.0000 H   0  0  0  0  0  0  0  0  0  0  0  0
    5.9545    2.4556    0.0000 H   0  0  0  0  0  0  0  0  0  0  0  0
    5.2220    2.9375    0.0000 H   0  0  0  0  0  0  0  0  0  0  0  0
    6.8750    2.3897    0.0000 H   0  0  0  0  0  0  0  0  0  0  0  0
    2.2575    2.2806    0.0000 H   0  0  0  0  0  0  0  0  0  0  0  0
    1.4360    1.9741    0.0000 H   0  0  0  0  0  0  0  0  0  0  0  0
    1.7425    1.1526    0.0000 H   0  0  0  0  0  0  0  0  0  0  0  0
    1.7767    0.9837    0.0000 H   0  0  0  0  0  0  0  0  0  0  0  0
    1.8144    0.1076    0.0000 H   0  0  0  0  0  0  0  0  0  0  0  0
    2.6904    0.1453    0.0000 H   0  0  0  0  0  0  0  0  0  0  0  0
    3.9790    3.4896    0.0000 H   0  0  0  0  0  0  0  0  0  0  0  0
   10.0283   -1.4183    0.0000 H   0  0  0  0  0  0  0  0  0  0  0  0
    8.6017    0.9880    0.0000 H   0  0  0  0  0  0  0  0  0  0  0  0
   11.1702   -0.1202    0.0000 H   0  0  0  0  0  0  0  0  0  0  0  0
  9  1  1  1  0  0  0
  1 14  1  0  0  0  0
  2 19  1  0  0  0  0
  2 22  1  0  0  0  0
  3 21  1  0  0  0  0
  3 26  1  0  0  0  0
  4 16  1  0  0  0  0
  4 55  1  0  0  0  0
 19  5  1  6  0  0  0
  5 62  1  0  0  0  0
  6 18  2  0  0  0  0
  7 26  2  0  0  0  0
  8 32  1  0  0  0  0
  8 33  1  0  0  0  0
  9 10  1  0  0  0  0
  9 12  1  0  0  0  0
  9 14  1  0  0  0  0
 10 11  1  0  0  0  0
 10 18  1  0  0  0  0
 10 23  1  1  0  0  0
 11 13  1  0  0  0  0
 11 16  1  0  0  0  0
 11 34  1  0  0  0  0
 12 17  1  0  0  0  0
 12 21  1  0  0  0  0
 12 24  1  6  0  0  0
 13 15  1  0  0  0  0
 13 19  1  0  0  0  0
 13 25  1  1  0  0  0
 14 26  1  0  0  0  0
 14 35  1  6  0  0  0
 15 20  1  0  0  0  0
 15 22  1  0  0  0  0
 15 36  1  0  0  0  0
 16 17  1  0  0  0  0
 16 37  1  0  0  0  0
 17 38  1  0  0  0  0
 17 39  1  0  0  0  0
 18 20  1  0  0  0  0
 19 27  1  0  0  0  0
 20 40  1  0  0  0  0
 20 41  1  0  0  0  0
 21 28  1  6  0  0  0
 21 42  1  0  0  0  0
 22 29  1  0  0  0  0
 22 30  1  0  0  0  0
 23 43  1  0  0  0  0
 23 44  1  0  0  0  0
 23 45  1  0  0  0  0
 24 46  1  0  0  0  0
 24 47  1  0  0  0  0
 24 48  1  0  0  0  0
 25 49  1  0  0  0  0
 25 50  1  0  0  0  0
 25 51  1  0  0  0  0
 27 52  1  0  0  0  0
 27 53  1  0  0  0  0
 27 54  1  0  0  0  0
 28 31  1  0  0  0  0
 28 32  2  0  0  0  0
 29 56  1  0  0  0  0
 29 57  1  0  0  0  0
 29 58  1  0  0  0  0
 30 59  1  0  0  0  0
 30 60  1  0  0  0  0
 30 61  1  0  0  0  0
 31 33  2  0  0  0  0
 31 63  1  0  0  0  0
 32 64  1  0  0  0  0
 33 65  1  0  0  0  0
M  END
> <PUBCHEM_COMPOUND_CID>
5458600

> <PUBCHEM_COMPOUND_CANONICALIZED>
1

> <PUBCHEM_CACTVS_COMPLEXITY>
949

> <PUBCHEM_CACTVS_HBOND_ACCEPTOR>
8

> <PUBCHEM_CACTVS_HBOND_DONOR>
2

> <PUBCHEM_CACTVS_ROTATABLE_BOND>
1

> <PUBCHEM_CACTVS_SUBSKEYS>
AAADcfB4PAAAAAAAAAAAAAAAEgAAASJAAAA0YIAABIAAAEjRgAAAGgAACAAAD1SgmAIyDIAABkCIAqjSiAICCAAkIAAIiAFGCMgdNxYENQ6CWSCl4BEOKYPK7vzvgAAAAAAAAADCAAYAADAAAAAAAAAAAA==

> <PUBCHEM_IUPAC_OPENEYE_NAME>
(1R,2R,4S,7S,8S,10S,12R,13S)-7-(3-furyl)-10,13-dihydroxy-1,8,12,13,15,15-hexamethyl-3,6,14-trioxapentacyclo[9.7.0.02,4.02,8.012,16]octadecane-5,18-dione

> <PUBCHEM_IUPAC_CAS_NAME>
(1R,2R,4S,7S,8S,10S,12R,13S)-7-(3-furanyl)-10,13-dihydroxy-1,8,12,13,15,15-hexamethyl-3,6,14-trioxapentacyclo[9.7.0.02,4.02,8.012,16]octadecane-5,18-dione

> <PUBCHEM_IUPAC_NAME_MARKUP>
(1<I>R</I>,2<I>R</I>,4<I>S</I>,7<I>S</I>,8<I>S</I>,10<I>S</I>,12<I>R</I>,13<I>S</I>)-7-(furan-3-yl)-10,13-dihydroxy-1,8,12,13,15,15-hexamethyl-3,6,14-trioxapentacyclo[9.7.0.0<SUP>2,4</SUP>.0<SUP>2,8</SUP>.0<SUP>12,16</SUP>]octadecane-5,18-dione

> <PUBCHEM_IUPAC_NAME>
(1R,2R,4S,7S,8S,10S,12R,13S)-7-(furan-3-yl)-10,13-dihydroxy-1,8,12,13,15,15-hexamethyl-3,6,14-trioxapentacyclo[9.7.0.02,4.02,8.012,16]octadecane-5,18-dione

> <PUBCHEM_IUPAC_SYSTEMATIC_NAME>
(1R,2R,4S,7S,8S,10S,12R,13S)-7-(furan-3-yl)-1,8,12,13,15,15-hexamethyl-10,13-bis(oxidanyl)-3,6,14-trioxapentacyclo[9.7.0.02,4.02,8.012,16]octadecane-5,18-dione

> <PUBCHEM_IUPAC_TRADITIONAL_NAME>
(1R,2R,4S,7S,8S,10S,12R,13S)-7-(3-furyl)-10,13-dihydroxy-1,8,12,13,15,15-hexamethyl-3,6,14-trioxapentacyclo[9.7.0.02,4.02,8.012,16]octadecane-5,18-quinone

> <PUBCHEM_IUPAC_INCHI>
InChI=1S/C25H32O8/c1-20(2)14-9-15(27)23(5)16(22(14,4)24(6,29)33-20)13(26)10-21(3)17(12-7-8-30-11-12)31-19(28)18-25(21,23)32-18/h7-8,11,13-14,16-18,26,29H,9-10H2,1-6H3/t13-,14?,16?,17-,18+,21-,22-,23+,24-,25+/m0/s1

> <PUBCHEM_IUPAC_INCHIKEY>
ABUJYLRTXBVIRH-KNFPJBQWSA-N

> <PUBCHEM_XLOGP3_AA>
1.1

> <PUBCHEM_EXACT_MASS>
460.20971797

> <PUBCHEM_MOLECULAR_FORMULA>
C25H32O8

> <PUBCHEM_MOLECULAR_WEIGHT>
460.5

> <PUBCHEM_SMILES>
C[C@@]12C[C@@H](C3[C@@]4(C(CC(=O)[C@]3([C@@]15[C@H](O5)C(=O)O[C@H]2C6=COC=C6)C)C(O[C@]4(C)O)(C)C)C)O

> <PUBCHEM_CONNECTIVITY_SMILES>
CC1(C2CC(=O)C3(C(C2(C(O1)(C)O)C)C(CC4(C35C(O5)C(=O)OC4C6=COC=C6)C)O)C)C

> <PUBCHEM_CACTVS_TPSA>
119

> <PUBCHEM_MONOISOTOPIC_WEIGHT>
460.20971797

> <PUBCHEM_TOTAL_CHARGE>
0

> <PUBCHEM_HEAVY_ATOM_COUNT>
33

> <PUBCHEM_ATOM_DEF_STEREO_COUNT>
8

> <PUBCHEM_ATOM_UDEF_STEREO_COUNT>
2

> <PUBCHEM_BOND_DEF_STEREO_COUNT>
0

> <PUBCHEM_BOND_UDEF_STEREO_COUNT>
0

> <PUBCHEM_ISOTOPIC_ATOM_COUNT>
0

> <PUBCHEM_COMPONENT_COUNT>
1

> <PUBCHEM_CACTVS_TAUTO_COUNT>
-1

> <PUBCHEM_COORDINATE_TYPE>
1
5
255

> <PUBCHEM_BONDANNOTATIONS>
9  1  5
10  23  5
11  16  3
12  24  6
13  25  5
14  35  6
15  20  3
21  28  6
28  31  8
28  32  8
31  33  8
19  5  6
8  32  8
8  33  8

$$$$
