104817
  -OEChem-01202622202D

 25 25  0     0  0  0  0  0  0999 V2000
    7.7331    0.5000    0.0000 P   0  0  0  0  0  0  0  0  0  0  0  0
    6.8671   -0.0000    0.0000 O   0  0  0  0  0  0  0  0  0  0  0  0
    2.5369    0.5000    0.0000 O   0  0  0  0  0  0  0  0  0  0  0  0
    8.5991    1.0000    0.0000 O   0  5  0  0  0  0  0  0  0  0  0  0
    8.2331   -0.3660    0.0000 O   0  5  0  0  0  0  0  0  0  0  0  0
    7.2331    1.3660    0.0000 O   0  0  0  0  0  0  0  0  0  0  0  0
    4.2690   -1.5000    0.0000 N   0  0  0  0  0  0  0  0  0  0  0  0
    5.1350   -0.0000    0.0000 C   0  0  0  0  0  0  0  0  0  0  0  0
    4.2690    0.5000    0.0000 C   0  0  0  0  0  0  0  0  0  0  0  0
    3.4030    0.0000    0.0000 C   0  0  0  0  0  0  0  0  0  0  0  0
    6.0010    0.5000    0.0000 C   0  0  0  0  0  0  0  0  0  0  0  0
    3.4030   -1.0000    0.0000 C   0  0  0  0  0  0  0  0  0  0  0  0
    5.1350   -1.0000    0.0000 C   0  0  0  0  0  0  0  0  0  0  0  0
    4.2690    1.5000    0.0000 C   0  0  0  0  0  0  0  0  0  0  0  0
    2.5369   -1.5000    0.0000 C   0  0  0  0  0  0  0  0  0  0  0  0
    6.3996    0.9749    0.0000 H   0  0  0  0  0  0  0  0  0  0  0  0
    5.6025    0.9749    0.0000 H   0  0  0  0  0  0  0  0  0  0  0  0
    5.6720   -1.3100    0.0000 H   0  0  0  0  0  0  0  0  0  0  0  0
    4.8890    1.5000    0.0000 H   0  0  0  0  0  0  0  0  0  0  0  0
    4.2690    2.1200    0.0000 H   0  0  0  0  0  0  0  0  0  0  0  0
    3.6490    1.5000    0.0000 H   0  0  0  0  0  0  0  0  0  0  0  0
    2.2269   -0.9631    0.0000 H   0  0  0  0  0  0  0  0  0  0  0  0
    2.0000   -1.8100    0.0000 H   0  0  0  0  0  0  0  0  0  0  0  0
    2.8469   -2.0369    0.0000 H   0  0  0  0  0  0  0  0  0  0  0  0
    2.0000    0.1900    0.0000 H   0  0  0  0  0  0  0  0  0  0  0  0
  1  2  1  0  0  0  0
  1  4  1  0  0  0  0
  1  5  1  0  0  0  0
  1  6  2  0  0  0  0
  2 11  1  0  0  0  0
  3 10  1  0  0  0  0
  3 25  1  0  0  0  0
  7 12  2  0  0  0  0
  7 13  1  0  0  0  0
  8  9  1  0  0  0  0
  8 11  1  0  0  0  0
  8 13  2  0  0  0  0
  9 10  2  0  0  0  0
  9 14  1  0  0  0  0
 10 12  1  0  0  0  0
 11 16  1  0  0  0  0
 11 17  1  0  0  0  0
 12 15  1  0  0  0  0
 13 18  1  0  0  0  0
 14 19  1  0  0  0  0
 14 20  1  0  0  0  0
 14 21  1  0  0  0  0
 15 22  1  0  0  0  0
 15 23  1  0  0  0  0
 15 24  1  0  0  0  0
M  CHG  2   4  -1   5  -1
M  END
> <PUBCHEM_COMPOUND_CID>
104817

> <PUBCHEM_COMPOUND_CANONICALIZED>
1

> <PUBCHEM_CACTVS_COMPLEXITY>
244

> <PUBCHEM_CACTVS_HBOND_ACCEPTOR>
6

> <PUBCHEM_CACTVS_HBOND_DONOR>
1

> <PUBCHEM_CACTVS_ROTATABLE_BOND>
2

> <PUBCHEM_CACTVS_SUBSKEYS>
AAADccByOAIAAAAAAAAAAAAAAAAAAAAAAAAsAAAAAAAAAAABgAAAHgAACCAADAzhngYuhpIIExCgQxRnRISCgCAxYCAA2CA9TJgKJmLSkZOEcAhmwBHY2AfwUAMOgAAAAAAAAAAAAAAAAAAAAAAAAAAAAA==

> <PUBCHEM_IUPAC_OPENEYE_NAME>
(5-hydroxy-4,6-dimethyl-3-pyridyl)methyl phosphate

> <PUBCHEM_IUPAC_CAS_NAME>
(5-hydroxy-4,6-dimethyl-3-pyridinyl)methyl phosphate

> <PUBCHEM_IUPAC_NAME_MARKUP>
(5-hydroxy-4,6-dimethyl-3-pyridinyl)methyl phosphate

> <PUBCHEM_IUPAC_NAME>
(5-hydroxy-4,6-dimethyl-3-pyridinyl)methyl phosphate

> <PUBCHEM_IUPAC_SYSTEMATIC_NAME>
(4,6-dimethyl-5-oxidanyl-3-pyridinyl)methyl phosphate

> <PUBCHEM_IUPAC_TRADITIONAL_NAME>
(5-hydroxy-4,6-dimethyl-3-pyridyl)methyl phosphate

> <PUBCHEM_IUPAC_INCHI>
InChI=1S/C8H12NO5P/c1-5-7(4-14-15(11,12)13)3-9-6(2)8(5)10/h3,10H,4H2,1-2H3,(H2,11,12,13)/p-2

> <PUBCHEM_IUPAC_INCHIKEY>
RBCOYOYDYNXAFA-UHFFFAOYSA-L

> <PUBCHEM_XLOGP3_AA>
-0.9

> <PUBCHEM_EXACT_MASS>
231.02965942

> <PUBCHEM_MOLECULAR_FORMULA>
C8H10NO5P-2

> <PUBCHEM_MOLECULAR_WEIGHT>
231.14

> <PUBCHEM_SMILES>
CC1=C(C(=NC=C1COP(=O)([O-])[O-])C)O

> <PUBCHEM_CONNECTIVITY_SMILES>
CC1=C(C(=NC=C1COP(=O)([O-])[O-])C)O

> <PUBCHEM_CACTVS_TPSA>
106

> <PUBCHEM_MONOISOTOPIC_WEIGHT>
231.02965942

> <PUBCHEM_TOTAL_CHARGE>
-2

> <PUBCHEM_HEAVY_ATOM_COUNT>
15

> <PUBCHEM_ATOM_DEF_STEREO_COUNT>
0

> <PUBCHEM_ATOM_UDEF_STEREO_COUNT>
0

> <PUBCHEM_BOND_DEF_STEREO_COUNT>
0

> <PUBCHEM_BOND_UDEF_STEREO_COUNT>
0

> <PUBCHEM_ISOTOPIC_ATOM_COUNT>
0

> <PUBCHEM_COMPONENT_COUNT>
1

> <PUBCHEM_CACTVS_TAUTO_COUNT>
-1

> <PUBCHEM_COORDINATE_TYPE>
1
5
255

> <PUBCHEM_BONDANNOTATIONS>
10  12  8
7  12  8
7  13  8
8  13  8
8  9  8
9  10  8

$$$$
