139593481
  -OEChem-01202622412D

 37 38  0     0  0  0  0  0  0999 V2000
    2.6539   -2.5915    0.0000 I   0  0  0  0  0  0  0  0  0  0  0  0
    6.4008    2.5915    0.0000 I   0  0  0  0  0  0  0  0  0  0  0  0
    5.7905   -4.0522    0.0000 Cl  0  0  0  0  0  0  0  0  0  0  0  0
    3.2643    4.0522    0.0000 Cl  0  0  0  0  0  0  0  0  0  0  0  0
    4.5274    0.0000    0.0000 Mg  0  2  0  0  0  0  0  0  0  0  0  0
    3.7183   -0.5878    0.0000 O   0  5  0  0  0  0  0  0  0  0  0  0
    5.3364    0.5878    0.0000 O   0  5  0  0  0  0  0  0  0  0  0  0
    5.3364   -0.5878    0.0000 N   0  3  0  0  0  0  0  0  0  0  0  0
    3.7183    0.5878    0.0000 N   0  3  0  0  0  0  0  0  0  0  0  0
    5.0274   -1.5388    0.0000 C   0  0  0  0  0  0  0  0  0  0  0  0
    4.0274    1.5388    0.0000 C   0  0  0  0  0  0  0  0  0  0  0  0
    4.0274   -1.5388    0.0000 C   0  0  0  0  0  0  0  0  0  0  0  0
    5.0274    1.5388    0.0000 C   0  0  0  0  0  0  0  0  0  0  0  0
    6.3518   -0.3555    0.0000 C   0  0  0  0  0  0  0  0  0  0  0  0
    2.7029    0.3555    0.0000 C   0  0  0  0  0  0  0  0  0  0  0  0
    5.7123   -2.3236    0.0000 C   0  0  0  0  0  0  0  0  0  0  0  0
    3.3424    2.3236    0.0000 C   0  0  0  0  0  0  0  0  0  0  0  0
    7.0547   -1.1242    0.0000 C   0  0  0  0  0  0  0  0  0  0  0  0
    2.0000    1.1242    0.0000 C   0  0  0  0  0  0  0  0  0  0  0  0
    3.6467   -2.4717    0.0000 C   0  0  0  0  0  0  0  0  0  0  0  0
    5.4080    2.4717    0.0000 C   0  0  0  0  0  0  0  0  0  0  0  0
    6.7328   -2.1149    0.0000 C   0  0  0  0  0  0  0  0  0  0  0  0
    2.3219    2.1149    0.0000 C   0  0  0  0  0  0  0  0  0  0  0  0
    5.2432   -3.2153    0.0000 C   0  0  0  0  0  0  0  0  0  0  0  0
    3.8115    3.2153    0.0000 C   0  0  0  0  0  0  0  0  0  0  0  0
    4.2382   -3.2874    0.0000 C   0  0  0  0  0  0  0  0  0  0  0  0
    4.8165    3.2874    0.0000 C   0  0  0  0  0  0  0  0  0  0  0  0
    5.5280    0.0019    0.0000 H   0  0  0  0  0  0  0  0  0  0  0  0
    3.5268   -0.0019    0.0000 H   0  0  0  0  0  0  0  0  0  0  0  0
    6.5365    0.2363    0.0000 H   0  0  0  0  0  0  0  0  0  0  0  0
    2.5182   -0.2363    0.0000 H   0  0  0  0  0  0  0  0  0  0  0  0
    7.6607   -0.9930    0.0000 H   0  0  0  0  0  0  0  0  0  0  0  0
    1.3940    0.9930    0.0000 H   0  0  0  0  0  0  0  0  0  0  0  0
    7.1459   -2.5772    0.0000 H   0  0  0  0  0  0  0  0  0  0  0  0
    1.9088    2.5772    0.0000 H   0  0  0  0  0  0  0  0  0  0  0  0
    3.9765   -3.8494    0.0000 H   0  0  0  0  0  0  0  0  0  0  0  0
    5.0782    3.8494    0.0000 H   0  0  0  0  0  0  0  0  0  0  0  0
  1 20  1  0  0  0  0
  2 21  1  0  0  0  0
  3 24  1  0  0  0  0
  4 25  1  0  0  0  0
  6 12  1  0  0  0  0
  7 13  1  0  0  0  0
  8 10  1  0  0  0  0
  8 14  2  0  0  0  0
  8 28  1  0  0  0  0
  9 11  1  0  0  0  0
  9 15  2  0  0  0  0
  9 29  1  0  0  0  0
 10 12  1  0  0  0  0
 10 16  2  0  0  0  0
 11 13  1  0  0  0  0
 11 17  2  0  0  0  0
 12 20  2  0  0  0  0
 13 21  2  0  0  0  0
 14 18  1  0  0  0  0
 14 30  1  0  0  0  0
 15 19  1  0  0  0  0
 15 31  1  0  0  0  0
 16 22  1  0  0  0  0
 16 24  1  0  0  0  0
 17 23  1  0  0  0  0
 17 25  1  0  0  0  0
 18 22  2  0  0  0  0
 18 32  1  0  0  0  0
 19 23  2  0  0  0  0
 19 33  1  0  0  0  0
 20 26  1  0  0  0  0
 21 27  1  0  0  0  0
 22 34  1  0  0  0  0
 23 35  1  0  0  0  0
 24 26  2  0  0  0  0
 25 27  2  0  0  0  0
 26 36  1  0  0  0  0
 27 37  1  0  0  0  0
M  CHG  5   5   2   6  -1   7  -1   8   1   9   1
M  END
> <PUBCHEM_COMPOUND_CID>
139593481

> <PUBCHEM_COMPOUND_CANONICALIZED>
1

> <PUBCHEM_CACTVS_COMPLEXITY>
431

> <PUBCHEM_CACTVS_HBOND_ACCEPTOR>
2

> <PUBCHEM_CACTVS_HBOND_DONOR>
2

> <PUBCHEM_CACTVS_ROTATABLE_BOND>
0

> <PUBCHEM_CACTVS_SUBSKEYS>
AAADccB7MAAGAyAAAAAAAAAAAAAAAWLAAAA8eIEAAAAAAFix/gAAHgIwAAAADA7DniQ8xvLJkACgAzRnRASCgCAxZyAI2aA9bpgKJuLBk5OEMAhk0BHYyAeQwLAOACABAAIDEAAAQAIABAYgAAAAAAAAAA==

> <PUBCHEM_IUPAC_OPENEYE_NAME>
magnesium bis(5-chloro-7-iodo-quinolin-1-ium-8-olate)

> <PUBCHEM_IUPAC_CAS_NAME>
magnesium bis(5-chloro-7-iodo-8-quinolin-1-iumolate)

> <PUBCHEM_IUPAC_NAME_MARKUP>
magnesium bis(5-chloro-7-iodoquinolin-1-ium-8-olate)

> <PUBCHEM_IUPAC_NAME>
magnesium bis(5-chloro-7-iodoquinolin-1-ium-8-olate)

> <PUBCHEM_IUPAC_SYSTEMATIC_NAME>
magnesium bis(5-chloranyl-7-iodanyl-quinolin-1-ium-8-olate)

> <PUBCHEM_IUPAC_TRADITIONAL_NAME>
magnesium bis(5-chloro-7-iodo-quinolin-1-ium-8-olate)

> <PUBCHEM_IUPAC_INCHI>
InChI=1S/2C9H5ClINO.Mg/c2*10-6-4-7(11)9(13)8-5(6)2-1-3-12-8;/h2*1-4,13H;/q;;+2

> <PUBCHEM_IUPAC_INCHIKEY>
MWBYKDCJYXQMEW-UHFFFAOYSA-N

> <PUBCHEM_EXACT_MASS>
633.80592

> <PUBCHEM_MOLECULAR_FORMULA>
C18H10Cl2I2MgN2O2+2

> <PUBCHEM_MOLECULAR_WEIGHT>
635.3

> <PUBCHEM_SMILES>
C1=CC2=C(C(=C(C=C2Cl)I)[O-])[NH+]=C1.C1=CC2=C(C(=C(C=C2Cl)I)[O-])[NH+]=C1.[Mg+2]

> <PUBCHEM_CONNECTIVITY_SMILES>
C1=CC2=C(C(=C(C=C2Cl)I)[O-])[NH+]=C1.C1=CC2=C(C(=C(C=C2Cl)I)[O-])[NH+]=C1.[Mg+2]

> <PUBCHEM_CACTVS_TPSA>
74.4

> <PUBCHEM_MONOISOTOPIC_WEIGHT>
633.80592

> <PUBCHEM_TOTAL_CHARGE>
2

> <PUBCHEM_HEAVY_ATOM_COUNT>
27

> <PUBCHEM_ATOM_DEF_STEREO_COUNT>
0

> <PUBCHEM_ATOM_UDEF_STEREO_COUNT>
0

> <PUBCHEM_BOND_DEF_STEREO_COUNT>
0

> <PUBCHEM_BOND_UDEF_STEREO_COUNT>
0

> <PUBCHEM_ISOTOPIC_ATOM_COUNT>
0

> <PUBCHEM_COMPONENT_COUNT>
3

> <PUBCHEM_CACTVS_TAUTO_COUNT>
-1

> <PUBCHEM_NONSTANDARDBOND>
5  6  7
5  7  7
5  8  7
5  9  7

> <PUBCHEM_COORDINATE_TYPE>
1
5
255

> <PUBCHEM_BONDANNOTATIONS>
10  12  8
10  16  8
11  13  8
11  17  8
12  20  8
13  21  8
16  24  8
17  25  8
20  26  8
21  27  8
24  26  8
25  27  8

$$$$
