129668924
  -OEChem-01202622402D

 23 22  0     1  0  0  0  0  0999 V2000
    4.5981   -0.8100    0.0000 S   0  0  3  0  0  0  0  0  0  0  0  0
    8.0622    1.1900    0.0000 S   0  0  0  0  0  0  0  0  0  0  0  0
    5.4641   -0.3100    0.0000 O   0  0  0  0  0  0  0  0  0  0  0  0
    6.3301   -1.8100    0.0000 O   0  0  0  0  0  0  0  0  0  0  0  0
    4.5981   -1.8100    0.0000 O   0  0  0  0  0  0  0  0  0  0  0  0
    8.0622   -0.8100    0.0000 N   0  0  0  0  0  0  0  0  0  0  0  0
    7.1962   -0.3100    0.0000 C   0  0  3  0  0  0  0  0  0  0  0  0
    7.1962    0.6900    0.0000 C   0  0  0  0  0  0  0  0  0  0  0  0
    6.3301   -0.8100    0.0000 C   0  0  0  0  0  0  0  0  0  0  0  0
    3.7320   -0.3100    0.0000 C   0  0  0  0  0  0  0  0  0  0  0  0
    2.8660   -0.8100    0.0000 C   0  0  0  0  0  0  0  0  0  0  0  0
    2.0000   -0.3100    0.0000 C   0  0  0  0  0  0  0  0  0  0  0  0
    7.7331    0.0000    0.0000 H   0  0  0  0  0  0  0  0  0  0  0  0
    6.9841    1.2726    0.0000 H   0  0  0  0  0  0  0  0  0  0  0  0
    6.5856    0.5823    0.0000 H   0  0  0  0  0  0  0  0  0  0  0  0
    8.5991   -0.5000    0.0000 H   0  0  0  0  0  0  0  0  0  0  0  0
    8.0622   -1.4300    0.0000 H   0  0  0  0  0  0  0  0  0  0  0  0
    4.1306    0.1649    0.0000 H   0  0  0  0  0  0  0  0  0  0  0  0
    3.3335    0.1649    0.0000 H   0  0  0  0  0  0  0  0  0  0  0  0
    8.0622    1.8100    0.0000 H   0  0  0  0  0  0  0  0  0  0  0  0
    2.8660   -1.4300    0.0000 H   0  0  0  0  0  0  0  0  0  0  0  0
    2.0000    0.3100    0.0000 H   0  0  0  0  0  0  0  0  0  0  0  0
    1.4631   -0.6200    0.0000 H   0  0  0  0  0  0  0  0  0  0  0  0
  1  3  1  0  0  0  0
  1  5  2  0  0  0  0
  1 10  1  0  0  0  0
  2  8  1  0  0  0  0
  2 20  1  0  0  0  0
  3  9  1  0  0  0  0
  4  9  2  0  0  0  0
  6  7  1  0  0  0  0
  6 16  1  0  0  0  0
  6 17  1  0  0  0  0
  7  8  1  0  0  0  0
  7  9  1  0  0  0  0
  7 13  1  0  0  0  0
  8 14  1  0  0  0  0
  8 15  1  0  0  0  0
 10 11  1  0  0  0  0
 10 18  1  0  0  0  0
 10 19  1  0  0  0  0
 11 12  2  0  0  0  0
 11 21  1  0  0  0  0
 12 22  1  0  0  0  0
 12 23  1  0  0  0  0
M  END
> <PUBCHEM_COMPOUND_CID>
129668924

> <PUBCHEM_COMPOUND_CANONICALIZED>
1

> <PUBCHEM_CACTVS_COMPLEXITY>
195

> <PUBCHEM_CACTVS_HBOND_ACCEPTOR>
6

> <PUBCHEM_CACTVS_HBOND_DONOR>
2

> <PUBCHEM_CACTVS_ROTATABLE_BOND>
6

> <PUBCHEM_CACTVS_SUBSKEYS>
AAADccBiMABgAAAAAAAAAAAAAAAAAAAAAAAAAAAAAAAAAAAAAAAAHgQQAAAACCjFwASACABAAAaIACDSCGBAAAAAAAAIAIGAAAACAAAAAQAAAAAAEAAAAAAAAAAAAAAAAAAAAAAAAAAAAAAAAAAAAAAAAA==

> <PUBCHEM_IUPAC_OPENEYE_NAME>
allylsulfinyl 2-amino-3-sulfanyl-propanoate

> <PUBCHEM_IUPAC_CAS_NAME>
2-amino-3-mercaptopropanoic acid prop-2-enylsulfinyl ester

> <PUBCHEM_IUPAC_NAME_MARKUP>
prop-2-enylsulfinyl 2-amino-3-sulfanylpropanoate

> <PUBCHEM_IUPAC_NAME>
prop-2-enylsulfinyl 2-amino-3-sulfanylpropanoate

> <PUBCHEM_IUPAC_SYSTEMATIC_NAME>
prop-2-enylsulfinyl 2-azanyl-3-sulfanyl-propanoate

> <PUBCHEM_IUPAC_TRADITIONAL_NAME>
2-amino-3-mercapto-propionic acid allylsulfinyl ester

> <PUBCHEM_IUPAC_INCHI>
InChI=1S/C6H11NO3S2/c1-2-3-12(9)10-6(8)5(7)4-11/h2,5,11H,1,3-4,7H2

> <PUBCHEM_IUPAC_INCHIKEY>
CPUZZTUWHQRWRL-UHFFFAOYSA-N

> <PUBCHEM_XLOGP3_AA>
-0.3

> <PUBCHEM_EXACT_MASS>
209.01803556

> <PUBCHEM_MOLECULAR_FORMULA>
C6H11NO3S2

> <PUBCHEM_MOLECULAR_WEIGHT>
209.3

> <PUBCHEM_SMILES>
C=CCS(=O)OC(=O)C(CS)N

> <PUBCHEM_CONNECTIVITY_SMILES>
C=CCS(=O)OC(=O)C(CS)N

> <PUBCHEM_CACTVS_TPSA>
89.6

> <PUBCHEM_MONOISOTOPIC_WEIGHT>
209.01803556

> <PUBCHEM_TOTAL_CHARGE>
0

> <PUBCHEM_HEAVY_ATOM_COUNT>
12

> <PUBCHEM_ATOM_DEF_STEREO_COUNT>
0

> <PUBCHEM_ATOM_UDEF_STEREO_COUNT>
2

> <PUBCHEM_BOND_DEF_STEREO_COUNT>
0

> <PUBCHEM_BOND_UDEF_STEREO_COUNT>
0

> <PUBCHEM_ISOTOPIC_ATOM_COUNT>
0

> <PUBCHEM_COMPONENT_COUNT>
1

> <PUBCHEM_CACTVS_TAUTO_COUNT>
-1

> <PUBCHEM_COORDINATE_TYPE>
1
5
255

> <PUBCHEM_BONDANNOTATIONS>
1  10  3
7  6  3

$$$$
