94870
  -OEChem-01202622192D

 49 50  0     0  0  0  0  0  0999 V2000
    4.2690   -0.0600    0.0000 O   0  0  0  0  0  0  0  0  0  0  0  0
    3.4030   -1.5600    0.0000 O   0  0  0  0  0  0  0  0  0  0  0  0
    5.1350   -4.5600    0.0000 O   0  0  0  0  0  0  0  0  0  0  0  0
    2.5369    2.9400    0.0000 O   0  0  0  0  0  0  0  0  0  0  0  0
    6.0010   -0.0600    0.0000 O   0  0  0  0  0  0  0  0  0  0  0  0
    5.1350    4.4400    0.0000 O   0  0  0  0  0  0  0  0  0  0  0  0
    3.4030    4.4400    0.0000 O   0  0  0  0  0  0  0  0  0  0  0  0
    5.1350   -1.5600    0.0000 C   0  0  0  0  0  0  0  0  0  0  0  0
    6.0010   -2.0600    0.0000 C   0  0  0  0  0  0  0  0  0  0  0  0
    4.2690   -2.0600    0.0000 C   0  0  0  0  0  0  0  0  0  0  0  0
    4.2690   -3.0600    0.0000 C   0  0  0  0  0  0  0  0  0  0  0  0
    5.1350   -3.5600    0.0000 C   0  0  0  0  0  0  0  0  0  0  0  0
    4.2690    0.9400    0.0000 C   0  0  0  0  0  0  0  0  0  0  0  0
    3.4030    1.4400    0.0000 C   0  0  0  0  0  0  0  0  0  0  0  0
    6.0010   -3.0600    0.0000 C   0  0  0  0  0  0  0  0  0  0  0  0
    5.1350    2.4400    0.0000 C   0  0  0  0  0  0  0  0  0  0  0  0
    4.2690    2.9400    0.0000 C   0  0  0  0  0  0  0  0  0  0  0  0
    3.4030    2.4400    0.0000 C   0  0  0  0  0  0  0  0  0  0  0  0
    5.1350    1.4400    0.0000 C   0  0  0  0  0  0  0  0  0  0  0  0
    5.1350   -0.5600    0.0000 C   0  0  0  0  0  0  0  0  0  0  0  0
    6.8671   -1.5600    0.0000 C   0  0  0  0  0  0  0  0  0  0  0  0
    3.4030   -3.5600    0.0000 C   0  0  0  0  0  0  0  0  0  0  0  0
    2.5369    0.9400    0.0000 C   0  0  0  0  0  0  0  0  0  0  0  0
    6.0010    2.9400    0.0000 C   0  0  0  0  0  0  0  0  0  0  0  0
    4.2690    3.9400    0.0000 C   0  0  0  0  0  0  0  0  0  0  0  0
    2.5369   -2.0600    0.0000 C   0  0  0  0  0  0  0  0  0  0  0  0
    6.0010   -5.0600    0.0000 C   0  0  0  0  0  0  0  0  0  0  0  0
    6.5380   -3.3700    0.0000 H   0  0  0  0  0  0  0  0  0  0  0  0
    5.6720    1.1300    0.0000 H   0  0  0  0  0  0  0  0  0  0  0  0
    7.1771   -2.0969    0.0000 H   0  0  0  0  0  0  0  0  0  0  0  0
    7.4040   -1.2500    0.0000 H   0  0  0  0  0  0  0  0  0  0  0  0
    6.5571   -1.0231    0.0000 H   0  0  0  0  0  0  0  0  0  0  0  0
    3.0930   -3.0231    0.0000 H   0  0  0  0  0  0  0  0  0  0  0  0
    2.8660   -3.8700    0.0000 H   0  0  0  0  0  0  0  0  0  0  0  0
    3.7130   -4.0969    0.0000 H   0  0  0  0  0  0  0  0  0  0  0  0
    2.2269    1.4769    0.0000 H   0  0  0  0  0  0  0  0  0  0  0  0
    2.0000    0.6300    0.0000 H   0  0  0  0  0  0  0  0  0  0  0  0
    2.8469    0.4031    0.0000 H   0  0  0  0  0  0  0  0  0  0  0  0
    6.3110    2.4031    0.0000 H   0  0  0  0  0  0  0  0  0  0  0  0
    6.5380    3.2500    0.0000 H   0  0  0  0  0  0  0  0  0  0  0  0
    5.6910    3.4769    0.0000 H   0  0  0  0  0  0  0  0  0  0  0  0
    2.2269   -1.5231    0.0000 H   0  0  0  0  0  0  0  0  0  0  0  0
    2.0000   -2.3700    0.0000 H   0  0  0  0  0  0  0  0  0  0  0  0
    2.8469   -2.5969    0.0000 H   0  0  0  0  0  0  0  0  0  0  0  0
    2.0000    2.6300    0.0000 H   0  0  0  0  0  0  0  0  0  0  0  0
    5.6910   -5.5969    0.0000 H   0  0  0  0  0  0  0  0  0  0  0  0
    6.5380   -5.3700    0.0000 H   0  0  0  0  0  0  0  0  0  0  0  0
    6.3110   -4.5231    0.0000 H   0  0  0  0  0  0  0  0  0  0  0  0
    5.1350    5.0600    0.0000 H   0  0  0  0  0  0  0  0  0  0  0  0
  1 13  1  0  0  0  0
  1 20  1  0  0  0  0
  2 10  1  0  0  0  0
  2 26  1  0  0  0  0
  3 12  1  0  0  0  0
  3 27  1  0  0  0  0
  4 18  1  0  0  0  0
  4 45  1  0  0  0  0
  5 20  2  0  0  0  0
  6 25  1  0  0  0  0
  6 49  1  0  0  0  0
  7 25  2  0  0  0  0
  8  9  1  0  0  0  0
  8 10  2  0  0  0  0
  8 20  1  0  0  0  0
  9 15  2  0  0  0  0
  9 21  1  0  0  0  0
 10 11  1  0  0  0  0
 11 12  2  0  0  0  0
 11 22  1  0  0  0  0
 12 15  1  0  0  0  0
 13 14  2  0  0  0  0
 13 19  1  0  0  0  0
 14 18  1  0  0  0  0
 14 23  1  0  0  0  0
 15 28  1  0  0  0  0
 16 17  1  0  0  0  0
 16 19  2  0  0  0  0
 16 24  1  0  0  0  0
 17 18  2  0  0  0  0
 17 25  1  0  0  0  0
 19 29  1  0  0  0  0
 21 30  1  0  0  0  0
 21 31  1  0  0  0  0
 21 32  1  0  0  0  0
 22 33  1  0  0  0  0
 22 34  1  0  0  0  0
 22 35  1  0  0  0  0
 23 36  1  0  0  0  0
 23 37  1  0  0  0  0
 23 38  1  0  0  0  0
 24 39  1  0  0  0  0
 24 40  1  0  0  0  0
 24 41  1  0  0  0  0
 26 42  1  0  0  0  0
 26 43  1  0  0  0  0
 26 44  1  0  0  0  0
 27 46  1  0  0  0  0
 27 47  1  0  0  0  0
 27 48  1  0  0  0  0
M  END
> <PUBCHEM_COMPOUND_CID>
94870

> <PUBCHEM_COMPOUND_CANONICALIZED>
1

> <PUBCHEM_CACTVS_COMPLEXITY>
536

> <PUBCHEM_CACTVS_HBOND_ACCEPTOR>
7

> <PUBCHEM_CACTVS_HBOND_DONOR>
2

> <PUBCHEM_CACTVS_ROTATABLE_BOND>
6

> <PUBCHEM_CACTVS_SUBSKEYS>
AAADceB4OAAAAAAAAAAAAAAAAAAAAAAAAAAwYAAAAAAAAAABQAAAGgAACAAADASAmAIyDoAABgCIAiDSCAACCAAkIAAAiAEGCMgMJzaGNRqCe2Cl4BUIuQeI7PzO4AADCAAYAADAAAYQADAAAAAAAAAAAA==

> <PUBCHEM_IUPAC_OPENEYE_NAME>
4-(2,4-dimethoxy-3,6-dimethyl-benzoyl)oxy-2-hydroxy-3,6-dimethyl-benzoic acid

> <PUBCHEM_IUPAC_CAS_NAME>
4-[(2,4-dimethoxy-3,6-dimethylphenyl)-oxomethoxy]-2-hydroxy-3,6-dimethylbenzoic acid

> <PUBCHEM_IUPAC_NAME_MARKUP>
4-(2,4-dimethoxy-3,6-dimethylbenzoyl)oxy-2-hydroxy-3,6-dimethylbenzoic acid

> <PUBCHEM_IUPAC_NAME>
4-(2,4-dimethoxy-3,6-dimethylbenzoyl)oxy-2-hydroxy-3,6-dimethylbenzoic acid

> <PUBCHEM_IUPAC_SYSTEMATIC_NAME>
4-(2,4-dimethoxy-3,6-dimethyl-phenyl)carbonyloxy-3,6-dimethyl-2-oxidanyl-benzoic acid

> <PUBCHEM_IUPAC_TRADITIONAL_NAME>
4-(2,4-dimethoxy-3,6-dimethyl-benzoyl)oxy-2-hydroxy-3,6-dimethyl-benzoic acid

> <PUBCHEM_IUPAC_INCHI>
InChI=1S/C20H22O7/c1-9-8-14(11(3)17(21)15(9)19(22)23)27-20(24)16-10(2)7-13(25-5)12(4)18(16)26-6/h7-8,21H,1-6H3,(H,22,23)

> <PUBCHEM_IUPAC_INCHIKEY>
MIJKZXWOOXIEEU-UHFFFAOYSA-N

> <PUBCHEM_XLOGP3_AA>
4.5

> <PUBCHEM_EXACT_MASS>
374.13655304

> <PUBCHEM_MOLECULAR_FORMULA>
C20H22O7

> <PUBCHEM_MOLECULAR_WEIGHT>
374.4

> <PUBCHEM_SMILES>
CC1=CC(=C(C(=C1C(=O)O)O)C)OC(=O)C2=C(C(=C(C=C2C)OC)C)OC

> <PUBCHEM_CONNECTIVITY_SMILES>
CC1=CC(=C(C(=C1C(=O)O)O)C)OC(=O)C2=C(C(=C(C=C2C)OC)C)OC

> <PUBCHEM_CACTVS_TPSA>
102

> <PUBCHEM_MONOISOTOPIC_WEIGHT>
374.13655304

> <PUBCHEM_TOTAL_CHARGE>
0

> <PUBCHEM_HEAVY_ATOM_COUNT>
27

> <PUBCHEM_ATOM_DEF_STEREO_COUNT>
0

> <PUBCHEM_ATOM_UDEF_STEREO_COUNT>
0

> <PUBCHEM_BOND_DEF_STEREO_COUNT>
0

> <PUBCHEM_BOND_UDEF_STEREO_COUNT>
0

> <PUBCHEM_ISOTOPIC_ATOM_COUNT>
0

> <PUBCHEM_COMPONENT_COUNT>
1

> <PUBCHEM_CACTVS_TAUTO_COUNT>
-1

> <PUBCHEM_COORDINATE_TYPE>
1
5
255

> <PUBCHEM_BONDANNOTATIONS>
10  11  8
11  12  8
12  15  8
13  14  8
13  19  8
14  18  8
16  17  8
16  19  8
17  18  8
8  10  8
8  9  8
9  15  8

$$$$
