14162526
  -OEChem-01202622382D

 49 51  0     0  0  0  0  0  0999 V2000
    4.4487    1.5000    0.0000 O   0  0  0  0  0  0  0  0  0  0  0  0
   14.9212    0.3047    0.0000 O   0  0  0  0  0  0  0  0  0  0  0  0
   14.9212   -1.3047    0.0000 O   0  0  0  0  0  0  0  0  0  0  0  0
    3.5827   -0.0000    0.0000 N   0  0  0  0  0  0  0  0  0  0  0  0
    2.0000   -0.3364    0.0000 C   0  0  0  0  0  0  0  0  0  0  0  0
    2.5000   -1.2024    0.0000 C   0  0  0  0  0  0  0  0  0  0  0  0
    2.6691    0.4067    0.0000 C   0  0  0  0  0  0  0  0  0  0  0  0
    3.4782   -0.9945    0.0000 C   0  0  0  0  0  0  0  0  0  0  0  0
    4.4487    0.5000    0.0000 C   0  0  0  0  0  0  0  0  0  0  0  0
    7.9128    0.5000    0.0000 C   0  0  0  0  0  0  0  0  0  0  0  0
    5.3147   -0.0000    0.0000 C   0  0  0  0  0  0  0  0  0  0  0  0
    7.0468   -0.0000    0.0000 C   0  0  0  0  0  0  0  0  0  0  0  0
    8.7788    0.0000    0.0000 C   0  0  0  0  0  0  0  0  0  0  0  0
    6.1808    0.5000    0.0000 C   0  0  0  0  0  0  0  0  0  0  0  0
    9.6448    0.5000    0.0000 C   0  0  0  0  0  0  0  0  0  0  0  0
   10.5109    0.0000    0.0000 C   0  0  0  0  0  0  0  0  0  0  0  0
   11.3769    0.5000    0.0000 C   0  0  0  0  0  0  0  0  0  0  0  0
   12.2429    0.0000    0.0000 C   0  0  0  0  0  0  0  0  0  0  0  0
   13.9750    0.0000    0.0000 C   0  0  0  0  0  0  0  0  0  0  0  0
   13.1090    0.5000    0.0000 C   0  0  0  0  0  0  0  0  0  0  0  0
   13.9750   -1.0000    0.0000 C   0  0  0  0  0  0  0  0  0  0  0  0
   12.2429   -1.0000    0.0000 C   0  0  0  0  0  0  0  0  0  0  0  0
   13.1090   -1.5000    0.0000 C   0  0  0  0  0  0  0  0  0  0  0  0
   15.5048   -0.5000    0.0000 C   0  0  0  0  0  0  0  0  0  0  0  0
    1.5851    0.1243    0.0000 H   0  0  0  0  0  0  0  0  0  0  0  0
    1.4984   -0.7008    0.0000 H   0  0  0  0  0  0  0  0  0  0  0  0
    1.9336   -1.4546    0.0000 H   0  0  0  0  0  0  0  0  0  0  0  0
    2.6916   -1.7921    0.0000 H   0  0  0  0  0  0  0  0  0  0  0  0
    2.9791    0.9437    0.0000 H   0  0  0  0  0  0  0  0  0  0  0  0
    2.1675    0.7712    0.0000 H   0  0  0  0  0  0  0  0  0  0  0  0
    3.5430   -1.6111    0.0000 H   0  0  0  0  0  0  0  0  0  0  0  0
    4.0982   -0.9945    0.0000 H   0  0  0  0  0  0  0  0  0  0  0  0
    8.3113    0.9749    0.0000 H   0  0  0  0  0  0  0  0  0  0  0  0
    7.5143    0.9749    0.0000 H   0  0  0  0  0  0  0  0  0  0  0  0
    5.3147   -0.6200    0.0000 H   0  0  0  0  0  0  0  0  0  0  0  0
    6.6482   -0.4749    0.0000 H   0  0  0  0  0  0  0  0  0  0  0  0
    7.4453   -0.4749    0.0000 H   0  0  0  0  0  0  0  0  0  0  0  0
    8.3803   -0.4749    0.0000 H   0  0  0  0  0  0  0  0  0  0  0  0
    9.1774   -0.4749    0.0000 H   0  0  0  0  0  0  0  0  0  0  0  0
    6.1808    1.1200    0.0000 H   0  0  0  0  0  0  0  0  0  0  0  0
   10.0434    0.9749    0.0000 H   0  0  0  0  0  0  0  0  0  0  0  0
    9.2463    0.9749    0.0000 H   0  0  0  0  0  0  0  0  0  0  0  0
   10.5109   -0.6200    0.0000 H   0  0  0  0  0  0  0  0  0  0  0  0
   11.3769    1.1200    0.0000 H   0  0  0  0  0  0  0  0  0  0  0  0
   13.1090    1.1200    0.0000 H   0  0  0  0  0  0  0  0  0  0  0  0
   11.7060   -1.3100    0.0000 H   0  0  0  0  0  0  0  0  0  0  0  0
   13.1090   -2.1200    0.0000 H   0  0  0  0  0  0  0  0  0  0  0  0
   15.9657   -0.9147    0.0000 H   0  0  0  0  0  0  0  0  0  0  0  0
   15.9657   -0.0853    0.0000 H   0  0  0  0  0  0  0  0  0  0  0  0
  1  9  2  0  0  0  0
  2 19  1  0  0  0  0
  2 24  1  0  0  0  0
  3 21  1  0  0  0  0
  3 24  1  0  0  0  0
  4  7  1  0  0  0  0
  4  8  1  0  0  0  0
  4  9  1  0  0  0  0
  5  6  1  0  0  0  0
  5  7  1  0  0  0  0
  5 25  1  0  0  0  0
  5 26  1  0  0  0  0
  6  8  1  0  0  0  0
  6 27  1  0  0  0  0
  6 28  1  0  0  0  0
  7 29  1  0  0  0  0
  7 30  1  0  0  0  0
  8 31  1  0  0  0  0
  8 32  1  0  0  0  0
  9 11  1  0  0  0  0
 10 12  1  0  0  0  0
 10 13  1  0  0  0  0
 10 33  1  0  0  0  0
 10 34  1  0  0  0  0
 11 14  2  0  0  0  0
 11 35  1  0  0  0  0
 12 14  1  0  0  0  0
 12 36  1  0  0  0  0
 12 37  1  0  0  0  0
 13 15  1  0  0  0  0
 13 38  1  0  0  0  0
 13 39  1  0  0  0  0
 14 40  1  0  0  0  0
 15 16  1  0  0  0  0
 15 41  1  0  0  0  0
 15 42  1  0  0  0  0
 16 17  2  0  0  0  0
 16 43  1  0  0  0  0
 17 18  1  0  0  0  0
 17 44  1  0  0  0  0
 18 20  2  0  0  0  0
 18 22  1  0  0  0  0
 19 20  1  0  0  0  0
 19 21  2  0  0  0  0
 20 45  1  0  0  0  0
 21 23  1  0  0  0  0
 22 23  2  0  0  0  0
 22 46  1  0  0  0  0
 23 47  1  0  0  0  0
 24 48  1  0  0  0  0
 24 49  1  0  0  0  0
M  END
> <PUBCHEM_COMPOUND_CID>
14162526

> <PUBCHEM_COMPOUND_CANONICALIZED>
1

> <PUBCHEM_CACTVS_COMPLEXITY>
454

> <PUBCHEM_CACTVS_HBOND_ACCEPTOR>
3

> <PUBCHEM_CACTVS_HBOND_DONOR>
0

> <PUBCHEM_CACTVS_ROTATABLE_BOND>
7

> <PUBCHEM_CACTVS_SUBSKEYS>
AAADceB6MAAAAAAAAAAAAAAAAAAAAWJAAAAwAAAAAAAAAEgBAAAAHgAAAAAADATBmAcwDoMABACIAiFSEACCCAAgIAAIiAAOiMgdJiKEsRqkMCIkxhGOqYeAwBAOIAABAAAAQABAAAIAAACAAAAAAAAAAA==

> <PUBCHEM_IUPAC_OPENEYE_NAME>
(2E,8E)-9-(1,3-benzodioxol-5-yl)-1-pyrrolidin-1-yl-nona-2,8-dien-1-one

> <PUBCHEM_IUPAC_CAS_NAME>
(2E,8E)-9-(1,3-benzodioxol-5-yl)-1-(1-pyrrolidinyl)-1-nona-2,8-dienone

> <PUBCHEM_IUPAC_NAME_MARKUP>
(2<I>E</I>,8<I>E</I>)-9-(1,3-benzodioxol-5-yl)-1-pyrrolidin-1-ylnona-2,8-dien-1-one

> <PUBCHEM_IUPAC_NAME>
(2E,8E)-9-(1,3-benzodioxol-5-yl)-1-pyrrolidin-1-ylnona-2,8-dien-1-one

> <PUBCHEM_IUPAC_SYSTEMATIC_NAME>
(2E,8E)-9-(1,3-benzodioxol-5-yl)-1-pyrrolidin-1-yl-nona-2,8-dien-1-one

> <PUBCHEM_IUPAC_TRADITIONAL_NAME>
(2E,8E)-9-(1,3-benzodioxol-5-yl)-1-pyrrolidino-nona-2,8-dien-1-one

> <PUBCHEM_IUPAC_INCHI>
InChI=1S/C20H25NO3/c22-20(21-13-7-8-14-21)10-6-4-2-1-3-5-9-17-11-12-18-19(15-17)24-16-23-18/h5-6,9-12,15H,1-4,7-8,13-14,16H2/b9-5+,10-6+

> <PUBCHEM_IUPAC_INCHIKEY>
BYKNKNBUHGFXQF-NXZHAISVSA-N

> <PUBCHEM_XLOGP3_AA>
4.4

> <PUBCHEM_EXACT_MASS>
327.18344366

> <PUBCHEM_MOLECULAR_FORMULA>
C20H25NO3

> <PUBCHEM_MOLECULAR_WEIGHT>
327.4

> <PUBCHEM_SMILES>
C1CCN(C1)C(=O)/C=C/CCCC/C=C/C2=CC3=C(C=C2)OCO3

> <PUBCHEM_CONNECTIVITY_SMILES>
C1CCN(C1)C(=O)C=CCCCCC=CC2=CC3=C(C=C2)OCO3

> <PUBCHEM_CACTVS_TPSA>
38.8

> <PUBCHEM_MONOISOTOPIC_WEIGHT>
327.18344366

> <PUBCHEM_TOTAL_CHARGE>
0

> <PUBCHEM_HEAVY_ATOM_COUNT>
24

> <PUBCHEM_ATOM_DEF_STEREO_COUNT>
0

> <PUBCHEM_ATOM_UDEF_STEREO_COUNT>
0

> <PUBCHEM_BOND_DEF_STEREO_COUNT>
2

> <PUBCHEM_BOND_UDEF_STEREO_COUNT>
0

> <PUBCHEM_ISOTOPIC_ATOM_COUNT>
0

> <PUBCHEM_COMPONENT_COUNT>
1

> <PUBCHEM_CACTVS_TAUTO_COUNT>
-1

> <PUBCHEM_COORDINATE_TYPE>
1
5
255

> <PUBCHEM_BONDANNOTATIONS>
18  20  8
18  22  8
19  20  8
19  21  8
21  23  8
22  23  8

$$$$
