83489
  -OEChem-01202622182D

 74 78  0     1  0  0  0  0  0999 V2000
    6.8671   -1.7787    0.0000 O   0  0  0  0  0  0  0  0  0  0  0  0
    6.0010   -4.2787    0.0000 O   0  0  0  0  0  0  0  0  0  0  0  0
    4.2690   -4.2787    0.0000 O   0  0  0  0  0  0  0  0  0  0  0  0
    7.7331   -4.2787    0.0000 O   0  0  0  0  0  0  0  0  0  0  0  0
    7.7331   -0.2787    0.0000 O   0  0  0  0  0  0  0  0  0  0  0  0
    9.4651   -3.2787    0.0000 O   0  0  0  0  0  0  0  0  0  0  0  0
    9.4651   -1.2787    0.0000 O   0  0  0  0  0  0  0  0  0  0  0  0
    6.0010   -6.2787    0.0000 O   0  0  0  0  0  0  0  0  0  0  0  0
    4.2690   -7.2787    0.0000 O   0  0  0  0  0  0  0  0  0  0  0  0
    2.5369   -6.2787    0.0000 O   0  0  0  0  0  0  0  0  0  0  0  0
    5.9589    2.7733    0.0000 O   0  0  0  0  0  0  0  0  0  0  0  0
    4.1934   -0.2514    0.0000 O   0  0  0  0  0  0  0  0  0  0  0  0
    3.3550    1.2833    0.0000 O   0  0  0  0  0  0  0  0  0  0  0  0
    6.8384    6.2699    0.0000 O   0  0  0  0  0  0  0  0  0  0  0  0
    5.1102    7.2766    0.0000 O   0  0  0  0  0  0  0  0  0  0  0  0
    6.8671   -2.7787    0.0000 C   0  0  1  0  0  0  0  0  0  0  0  0
    7.7331   -3.2787    0.0000 C   0  0  2  0  0  0  0  0  0  0  0  0
    8.5991   -2.7787    0.0000 C   0  0  1  0  0  0  0  0  0  0  0  0
    8.5991   -1.7787    0.0000 C   0  0  2  0  0  0  0  0  0  0  0  0
    5.1350   -5.7787    0.0000 C   0  0  1  0  0  0  0  0  0  0  0  0
    5.1350   -4.7787    0.0000 C   0  0  2  0  0  0  0  0  0  0  0  0
    4.2690   -6.2787    0.0000 C   0  0  1  0  0  0  0  0  0  0  0  0
    3.4030   -5.7787    0.0000 C   0  0  2  0  0  0  0  0  0  0  0  0
    7.7331   -1.2787    0.0000 C   0  0  1  0  0  0  0  0  0  0  0  0
    6.0010   -3.2787    0.0000 C   0  0  0  0  0  0  0  0  0  0  0  0
    3.4030   -4.7787    0.0000 C   0  0  2  0  0  0  0  0  0  0  0  0
    2.5369   -4.2787    0.0000 C   0  0  0  0  0  0  0  0  0  0  0  0
    6.8671    0.2213    0.0000 C   0  0  0  0  0  0  0  0  0  0  0  0
    6.8631    1.2630    0.0000 C   0  0  0  0  0  0  0  0  0  0  0  0
    5.9550    1.7733    0.0000 C   0  0  0  0  0  0  0  0  0  0  0  0
    5.9630   -0.2960    0.0000 C   0  0  0  0  0  0  0  0  0  0  0  0
    5.0948    3.2766    0.0000 C   0  0  1  0  0  0  0  0  0  0  0  0
    5.0871    1.2767    0.0000 C   0  0  0  0  0  0  0  0  0  0  0  0
    4.2268    2.7800    0.0000 C   0  0  0  0  0  0  0  0  0  0  0  0
    5.0670    0.2352    0.0000 C   0  0  0  0  0  0  0  0  0  0  0  0
    4.2230    1.7800    0.0000 C   0  0  0  0  0  0  0  0  0  0  0  0
    5.0986    4.2766    0.0000 C   0  0  0  0  0  0  0  0  0  0  0  0
    5.9666    4.7733    0.0000 C   0  0  0  0  0  0  0  0  0  0  0  0
    4.2345    4.7800    0.0000 C   0  0  0  0  0  0  0  0  0  0  0  0
    5.9704    5.7733    0.0000 C   0  0  0  0  0  0  0  0  0  0  0  0
    4.2384    5.7800    0.0000 C   0  0  0  0  0  0  0  0  0  0  0  0
    5.1063    6.2766    0.0000 C   0  0  0  0  0  0  0  0  0  0  0  0
    6.3301   -2.4687    0.0000 H   0  0  0  0  0  0  0  0  0  0  0  0
    8.2700   -3.5887    0.0000 H   0  0  0  0  0  0  0  0  0  0  0  0
    9.1361   -2.4687    0.0000 H   0  0  0  0  0  0  0  0  0  0  0  0
    8.5991   -1.1587    0.0000 H   0  0  0  0  0  0  0  0  0  0  0  0
    5.1350   -6.3987    0.0000 H   0  0  0  0  0  0  0  0  0  0  0  0
    5.1350   -4.1587    0.0000 H   0  0  0  0  0  0  0  0  0  0  0  0
    3.7321   -6.5887    0.0000 H   0  0  0  0  0  0  0  0  0  0  0  0
    3.4030   -6.3987    0.0000 H   0  0  0  0  0  0  0  0  0  0  0  0
    7.1962   -0.9687    0.0000 H   0  0  0  0  0  0  0  0  0  0  0  0
    5.7890   -2.6961    0.0000 H   0  0  0  0  0  0  0  0  0  0  0  0
    5.3905   -3.3863    0.0000 H   0  0  0  0  0  0  0  0  0  0  0  0
    3.4030   -4.1587    0.0000 H   0  0  0  0  0  0  0  0  0  0  0  0
    2.8469   -3.7417    0.0000 H   0  0  0  0  0  0  0  0  0  0  0  0
    2.0000   -3.9687    0.0000 H   0  0  0  0  0  0  0  0  0  0  0  0
    2.2269   -4.8156    0.0000 H   0  0  0  0  0  0  0  0  0  0  0  0
    8.2700   -4.5887    0.0000 H   0  0  0  0  0  0  0  0  0  0  0  0
   10.0021   -2.9687    0.0000 H   0  0  0  0  0  0  0  0  0  0  0  0
    9.4651   -0.6587    0.0000 H   0  0  0  0  0  0  0  0  0  0  0  0
    6.5380   -5.9687    0.0000 H   0  0  0  0  0  0  0  0  0  0  0  0
    3.7321   -7.5887    0.0000 H   0  0  0  0  0  0  0  0  0  0  0  0
    2.0000   -5.9687    0.0000 H   0  0  0  0  0  0  0  0  0  0  0  0
    7.3976    1.5771    0.0000 H   0  0  0  0  0  0  0  0  0  0  0  0
    5.6329    3.5846    0.0000 H   0  0  0  0  0  0  0  0  0  0  0  0
    5.9582   -0.9160    0.0000 H   0  0  0  0  0  0  0  0  0  0  0  0
    4.0170    3.3634    0.0000 H   0  0  0  0  0  0  0  0  0  0  0  0
    3.6158    2.6747    0.0000 H   0  0  0  0  0  0  0  0  0  0  0  0
    6.5023    4.4612    0.0000 H   0  0  0  0  0  0  0  0  0  0  0  0
    3.6964    4.4720    0.0000 H   0  0  0  0  0  0  0  0  0  0  0  0
    4.1838   -0.8713    0.0000 H   0  0  0  0  0  0  0  0  0  0  0  0
    3.7027    6.0920    0.0000 H   0  0  0  0  0  0  0  0  0  0  0  0
    6.8408    6.8899    0.0000 H   0  0  0  0  0  0  0  0  0  0  0  0
    4.5745    7.5887    0.0000 H   0  0  0  0  0  0  0  0  0  0  0  0
  1 16  1  0  0  0  0
  1 24  1  0  0  0  0
 21  2  1  1  0  0  0
  2 25  1  0  0  0  0
  3 21  1  0  0  0  0
  3 26  1  0  0  0  0
 17  4  1  6  0  0  0
  4 58  1  0  0  0  0
 24  5  1  1  0  0  0
  5 28  1  0  0  0  0
 18  6  1  1  0  0  0
  6 59  1  0  0  0  0
 19  7  1  6  0  0  0
  7 60  1  0  0  0  0
 20  8  1  6  0  0  0
  8 61  1  0  0  0  0
 22  9  1  6  0  0  0
  9 62  1  0  0  0  0
 23 10  1  1  0  0  0
 10 63  1  0  0  0  0
 11 30  1  0  0  0  0
 11 32  1  0  0  0  0
 12 35  1  0  0  0  0
 12 71  1  0  0  0  0
 13 36  2  0  0  0  0
 14 40  1  0  0  0  0
 14 73  1  0  0  0  0
 15 42  1  0  0  0  0
 15 74  1  0  0  0  0
 16 17  1  0  0  0  0
 16 25  1  1  0  0  0
 16 43  1  0  0  0  0
 17 18  1  0  0  0  0
 17 44  1  0  0  0  0
 18 19  1  0  0  0  0
 18 45  1  0  0  0  0
 19 24  1  0  0  0  0
 19 46  1  0  0  0  0
 20 21  1  0  0  0  0
 20 22  1  0  0  0  0
 20 47  1  0  0  0  0
 21 48  1  0  0  0  0
 22 23  1  0  0  0  0
 22 49  1  0  0  0  0
 23 26  1  0  0  0  0
 23 50  1  0  0  0  0
 24 51  1  0  0  0  0
 25 52  1  0  0  0  0
 25 53  1  0  0  0  0
 26 27  1  6  0  0  0
 26 54  1  0  0  0  0
 27 55  1  0  0  0  0
 27 56  1  0  0  0  0
 27 57  1  0  0  0  0
 28 29  1  0  0  0  0
 28 31  2  0  0  0  0
 29 30  2  0  0  0  0
 29 64  1  0  0  0  0
 30 33  1  0  0  0  0
 31 35  1  0  0  0  0
 31 66  1  0  0  0  0
 32 34  1  0  0  0  0
 32 37  1  1  0  0  0
 32 65  1  0  0  0  0
 33 35  2  0  0  0  0
 33 36  1  0  0  0  0
 34 36  1  0  0  0  0
 34 67  1  0  0  0  0
 34 68  1  0  0  0  0
 37 38  2  0  0  0  0
 37 39  1  0  0  0  0
 38 40  1  0  0  0  0
 38 69  1  0  0  0  0
 39 41  2  0  0  0  0
 39 70  1  0  0  0  0
 40 42  2  0  0  0  0
 41 42  1  0  0  0  0
 41 72  1  0  0  0  0
M  END
> <PUBCHEM_COMPOUND_CID>
83489

> <PUBCHEM_COMPOUND_CANONICALIZED>
1

> <PUBCHEM_CACTVS_COMPLEXITY>
924

> <PUBCHEM_CACTVS_HBOND_ACCEPTOR>
15

> <PUBCHEM_CACTVS_HBOND_DONOR>
9

> <PUBCHEM_CACTVS_ROTATABLE_BOND>
6

> <PUBCHEM_CACTVS_SUBSKEYS>
AAADcfB4PAAAAAAAAAAAAAAAAAAAAAAAAAA0aJECAAAAAACRQAAAGgAACAAADBSwmAMyDoAABgCIAqBSAAACCAAkIAAIiAEGiMgdNzaGNRqieWGl4BUPuQfI7PzOIAABCAAIQABAAAIQABCAAAAAAAAAAA==

> <PUBCHEM_IUPAC_OPENEYE_NAME>
(2S)-2-(3,4-dihydroxyphenyl)-5-hydroxy-7-[(2S,3R,4S,5S,6R)-3,4,5-trihydroxy-6-[[(2R,3R,4R,5R,6S)-3,4,5-trihydroxy-6-methyl-tetrahydropyran-2-yl]oxymethyl]tetrahydropyran-2-yl]oxy-chroman-4-one

> <PUBCHEM_IUPAC_CAS_NAME>
(2S)-2-(3,4-dihydroxyphenyl)-5-hydroxy-7-[[(2S,3R,4S,5S,6R)-3,4,5-trihydroxy-6-[[(2R,3R,4R,5R,6S)-3,4,5-trihydroxy-6-methyl-2-oxanyl]oxymethyl]-2-oxanyl]oxy]-3,4-dihydro-2H-1-benzopyran-4-one

> <PUBCHEM_IUPAC_NAME_MARKUP>
(2<I>S</I>)-2-(3,4-dihydroxyphenyl)-5-hydroxy-7-[(2<I>S</I>,3<I>R</I>,4<I>S</I>,5<I>S</I>,6<I>R</I>)-3,4,5-trihydroxy-6-[[(2<I>R</I>,3<I>R</I>,4<I>R</I>,5<I>R</I>,6<I>S</I>)-3,4,5-trihydroxy-6-methyloxan-2-yl]oxymethyl]oxan-2-yl]oxy-2,3-dihydrochromen-4-one

> <PUBCHEM_IUPAC_NAME>
(2S)-2-(3,4-dihydroxyphenyl)-5-hydroxy-7-[(2S,3R,4S,5S,6R)-3,4,5-trihydroxy-6-[[(2R,3R,4R,5R,6S)-3,4,5-trihydroxy-6-methyloxan-2-yl]oxymethyl]oxan-2-yl]oxy-2,3-dihydrochromen-4-one

> <PUBCHEM_IUPAC_SYSTEMATIC_NAME>
(2S)-2-[3,4-bis(oxidanyl)phenyl]-7-[(2S,3R,4S,5S,6R)-6-[[(2R,3R,4R,5R,6S)-6-methyl-3,4,5-tris(oxidanyl)oxan-2-yl]oxymethyl]-3,4,5-tris(oxidanyl)oxan-2-yl]oxy-5-oxidanyl-2,3-dihydrochromen-4-one

> <PUBCHEM_IUPAC_TRADITIONAL_NAME>
(2S)-2-(3,4-dihydroxyphenyl)-5-hydroxy-7-[(2S,3R,4S,5S,6R)-3,4,5-trihydroxy-6-[[(2R,3R,4R,5R,6S)-3,4,5-trihydroxy-6-methyl-tetrahydropyran-2-yl]oxymethyl]tetrahydropyran-2-yl]oxy-chroman-4-one

> <PUBCHEM_IUPAC_INCHI>
InChI=1S/C27H32O15/c1-9-20(32)22(34)24(36)26(39-9)38-8-18-21(33)23(35)25(37)27(42-18)40-11-5-14(30)19-15(31)7-16(41-17(19)6-11)10-2-3-12(28)13(29)4-10/h2-6,9,16,18,20-30,32-37H,7-8H2,1H3/t9-,16-,18+,20-,21+,22+,23-,24+,25+,26+,27+/m0/s1

> <PUBCHEM_IUPAC_INCHIKEY>
OMQADRGFMLGFJF-MNPJBKLOSA-N

> <PUBCHEM_XLOGP3_AA>
-1.4

> <PUBCHEM_EXACT_MASS>
596.17412031

> <PUBCHEM_MOLECULAR_FORMULA>
C27H32O15

> <PUBCHEM_MOLECULAR_WEIGHT>
596.5

> <PUBCHEM_SMILES>
C[C@H]1[C@@H]([C@H]([C@H]([C@@H](O1)OC[C@@H]2[C@H]([C@@H]([C@H]([C@@H](O2)OC3=CC(=C4C(=O)C[C@H](OC4=C3)C5=CC(=C(C=C5)O)O)O)O)O)O)O)O)O

> <PUBCHEM_CONNECTIVITY_SMILES>
CC1C(C(C(C(O1)OCC2C(C(C(C(O2)OC3=CC(=C4C(=O)CC(OC4=C3)C5=CC(=C(C=C5)O)O)O)O)O)O)O)O)O

> <PUBCHEM_CACTVS_TPSA>
245

> <PUBCHEM_MONOISOTOPIC_WEIGHT>
596.17412031

> <PUBCHEM_TOTAL_CHARGE>
0

> <PUBCHEM_HEAVY_ATOM_COUNT>
42

> <PUBCHEM_ATOM_DEF_STEREO_COUNT>
11

> <PUBCHEM_ATOM_UDEF_STEREO_COUNT>
0

> <PUBCHEM_BOND_DEF_STEREO_COUNT>
0

> <PUBCHEM_BOND_UDEF_STEREO_COUNT>
0

> <PUBCHEM_ISOTOPIC_ATOM_COUNT>
0

> <PUBCHEM_COMPONENT_COUNT>
1

> <PUBCHEM_CACTVS_TAUTO_COUNT>
-1

> <PUBCHEM_COORDINATE_TYPE>
1
5
255

> <PUBCHEM_BONDANNOTATIONS>
23  10  5
16  25  5
21  2  5
26  27  6
28  29  8
28  31  8
29  30  8
30  33  8
31  35  8
32  37  5
33  35  8
37  38  8
37  39  8
38  40  8
39  41  8
17  4  6
40  42  8
41  42  8
24  5  5
18  6  5
19  7  6
20  8  6
22  9  6

$$$$
