6505653
  -OEChem-01202613552D

116115  0     1  0  0  0  0  0999 V2000
   20.1865    0.8100    0.0000 O   0  0  0  0  0  0  0  0  0  0  0  0
   17.5885    0.3100    0.0000 O   0  0  0  0  0  0  0  0  0  0  0  0
   21.0526   -0.6900    0.0000 O   0  0  0  0  0  0  0  0  0  0  0  0
   16.7224    1.8100    0.0000 O   0  0  0  0  0  0  0  0  0  0  0  0
   18.4545   -1.1900    0.0000 O   0  0  0  0  0  0  0  0  0  0  0  0
   24.5167    0.3100    0.0000 C   0  0  0  0  0  0  0  0  0  0  0  0
   25.3827    0.8100    0.0000 C   0  0  0  0  0  0  0  0  0  0  0  0
   13.2583    0.8100    0.0000 C   0  0  0  0  0  0  0  0  0  0  0  0
   12.3923    0.3100    0.0000 C   0  0  0  0  0  0  0  0  0  0  0  0
   32.3109    0.8100    0.0000 C   0  0  0  0  0  0  0  0  0  0  0  0
   31.4449    0.3100    0.0000 C   0  0  0  0  0  0  0  0  0  0  0  0
    5.4641    0.3100    0.0000 C   0  0  0  0  0  0  0  0  0  0  0  0
    6.3301    0.8100    0.0000 C   0  0  0  0  0  0  0  0  0  0  0  0
   23.6506    0.8100    0.0000 C   0  0  0  0  0  0  0  0  0  0  0  0
   26.2487    0.3100    0.0000 C   0  0  0  0  0  0  0  0  0  0  0  0
   14.1244    0.3100    0.0000 C   0  0  0  0  0  0  0  0  0  0  0  0
   33.1769    0.3100    0.0000 C   0  0  0  0  0  0  0  0  0  0  0  0
   11.5263    0.8100    0.0000 C   0  0  0  0  0  0  0  0  0  0  0  0
    4.5981    0.8100    0.0000 C   0  0  0  0  0  0  0  0  0  0  0  0
   30.5788    0.8100    0.0000 C   0  0  0  0  0  0  0  0  0  0  0  0
    7.1962    0.3100    0.0000 C   0  0  0  0  0  0  0  0  0  0  0  0
   22.7846    0.3100    0.0000 C   0  0  0  0  0  0  0  0  0  0  0  0
   27.1147    0.8100    0.0000 C   0  0  0  0  0  0  0  0  0  0  0  0
   14.9904    0.8100    0.0000 C   0  0  0  0  0  0  0  0  0  0  0  0
   34.0429    0.8100    0.0000 C   0  0  0  0  0  0  0  0  0  0  0  0
    3.7321    0.3100    0.0000 C   0  0  0  0  0  0  0  0  0  0  0  0
   10.6603    0.3100    0.0000 C   0  0  0  0  0  0  0  0  0  0  0  0
   29.7128    0.3100    0.0000 C   0  0  0  0  0  0  0  0  0  0  0  0
    8.0622    0.8100    0.0000 C   0  0  0  0  0  0  0  0  0  0  0  0
   21.9186    0.8100    0.0000 C   0  0  0  0  0  0  0  0  0  0  0  0
   34.9090    0.3100    0.0000 C   0  0  0  0  0  0  0  0  0  0  0  0
    2.8660    0.8100    0.0000 C   0  0  0  0  0  0  0  0  0  0  0  0
   15.8564    0.3100    0.0000 C   0  0  0  0  0  0  0  0  0  0  0  0
   27.9808    0.3100    0.0000 C   0  0  0  0  0  0  0  0  0  0  0  0
   28.8468    0.8100    0.0000 C   0  0  0  0  0  0  0  0  0  0  0  0
    9.7942    0.8100    0.0000 C   0  0  0  0  0  0  0  0  0  0  0  0
    8.9282    0.3100    0.0000 C   0  0  0  0  0  0  0  0  0  0  0  0
   21.0526    0.3100    0.0000 C   0  0  0  0  0  0  0  0  0  0  0  0
   19.3205    0.3100    0.0000 C   0  0  2  0  0  0  0  0  0  0  0  0
   35.7750    0.8100    0.0000 C   0  0  0  0  0  0  0  0  0  0  0  0
    2.0000    0.3100    0.0000 C   0  0  0  0  0  0  0  0  0  0  0  0
   16.7224    0.8100    0.0000 C   0  0  0  0  0  0  0  0  0  0  0  0
   18.4545    0.8100    0.0000 C   0  0  0  0  0  0  0  0  0  0  0  0
   19.3205   -0.6900    0.0000 C   0  0  0  0  0  0  0  0  0  0  0  0
   24.1181   -0.1649    0.0000 H   0  0  0  0  0  0  0  0  0  0  0  0
   24.9152   -0.1649    0.0000 H   0  0  0  0  0  0  0  0  0  0  0  0
   25.7812    1.2850    0.0000 H   0  0  0  0  0  0  0  0  0  0  0  0
   24.9842    1.2850    0.0000 H   0  0  0  0  0  0  0  0  0  0  0  0
   13.6569    1.2850    0.0000 H   0  0  0  0  0  0  0  0  0  0  0  0
   12.8598    1.2850    0.0000 H   0  0  0  0  0  0  0  0  0  0  0  0
   11.9938   -0.1649    0.0000 H   0  0  0  0  0  0  0  0  0  0  0  0
   12.7908   -0.1649    0.0000 H   0  0  0  0  0  0  0  0  0  0  0  0
   32.7094    1.2850    0.0000 H   0  0  0  0  0  0  0  0  0  0  0  0
   31.9124    1.2850    0.0000 H   0  0  0  0  0  0  0  0  0  0  0  0
   31.0463   -0.1649    0.0000 H   0  0  0  0  0  0  0  0  0  0  0  0
   31.8434   -0.1649    0.0000 H   0  0  0  0  0  0  0  0  0  0  0  0
    5.0656   -0.1649    0.0000 H   0  0  0  0  0  0  0  0  0  0  0  0
    5.8626   -0.1649    0.0000 H   0  0  0  0  0  0  0  0  0  0  0  0
    6.7287    1.2850    0.0000 H   0  0  0  0  0  0  0  0  0  0  0  0
    5.9316    1.2850    0.0000 H   0  0  0  0  0  0  0  0  0  0  0  0
   24.0492    1.2850    0.0000 H   0  0  0  0  0  0  0  0  0  0  0  0
   23.2521    1.2850    0.0000 H   0  0  0  0  0  0  0  0  0  0  0  0
   25.8502   -0.1649    0.0000 H   0  0  0  0  0  0  0  0  0  0  0  0
   26.6472   -0.1649    0.0000 H   0  0  0  0  0  0  0  0  0  0  0  0
   13.7258   -0.1649    0.0000 H   0  0  0  0  0  0  0  0  0  0  0  0
   14.5229   -0.1649    0.0000 H   0  0  0  0  0  0  0  0  0  0  0  0
   32.7784   -0.1649    0.0000 H   0  0  0  0  0  0  0  0  0  0  0  0
   33.5754   -0.1649    0.0000 H   0  0  0  0  0  0  0  0  0  0  0  0
   11.9248    1.2850    0.0000 H   0  0  0  0  0  0  0  0  0  0  0  0
   11.1278    1.2850    0.0000 H   0  0  0  0  0  0  0  0  0  0  0  0
    4.9966    1.2850    0.0000 H   0  0  0  0  0  0  0  0  0  0  0  0
    4.1996    1.2850    0.0000 H   0  0  0  0  0  0  0  0  0  0  0  0
   30.9774    1.2850    0.0000 H   0  0  0  0  0  0  0  0  0  0  0  0
   30.1803    1.2850    0.0000 H   0  0  0  0  0  0  0  0  0  0  0  0
    6.7976   -0.1649    0.0000 H   0  0  0  0  0  0  0  0  0  0  0  0
    7.5947   -0.1649    0.0000 H   0  0  0  0  0  0  0  0  0  0  0  0
   22.3861   -0.1649    0.0000 H   0  0  0  0  0  0  0  0  0  0  0  0
   23.1831   -0.1649    0.0000 H   0  0  0  0  0  0  0  0  0  0  0  0
   27.5133    1.2850    0.0000 H   0  0  0  0  0  0  0  0  0  0  0  0
   26.7162    1.2850    0.0000 H   0  0  0  0  0  0  0  0  0  0  0  0
   15.3889    1.2850    0.0000 H   0  0  0  0  0  0  0  0  0  0  0  0
   14.5919    1.2850    0.0000 H   0  0  0  0  0  0  0  0  0  0  0  0
   34.4415    1.2850    0.0000 H   0  0  0  0  0  0  0  0  0  0  0  0
   33.6444    1.2850    0.0000 H   0  0  0  0  0  0  0  0  0  0  0  0
    3.3335   -0.1649    0.0000 H   0  0  0  0  0  0  0  0  0  0  0  0
    4.1306   -0.1649    0.0000 H   0  0  0  0  0  0  0  0  0  0  0  0
   10.2617   -0.1649    0.0000 H   0  0  0  0  0  0  0  0  0  0  0  0
   11.0588   -0.1649    0.0000 H   0  0  0  0  0  0  0  0  0  0  0  0
   29.3143   -0.1649    0.0000 H   0  0  0  0  0  0  0  0  0  0  0  0
   30.1113   -0.1649    0.0000 H   0  0  0  0  0  0  0  0  0  0  0  0
    8.4607    1.2850    0.0000 H   0  0  0  0  0  0  0  0  0  0  0  0
    7.6637    1.2850    0.0000 H   0  0  0  0  0  0  0  0  0  0  0  0
   22.3171    1.2850    0.0000 H   0  0  0  0  0  0  0  0  0  0  0  0
   21.5201    1.2850    0.0000 H   0  0  0  0  0  0  0  0  0  0  0  0
   34.5104   -0.1649    0.0000 H   0  0  0  0  0  0  0  0  0  0  0  0
   35.3075   -0.1649    0.0000 H   0  0  0  0  0  0  0  0  0  0  0  0
    3.2646    1.2850    0.0000 H   0  0  0  0  0  0  0  0  0  0  0  0
    2.4675    1.2850    0.0000 H   0  0  0  0  0  0  0  0  0  0  0  0
   15.4579   -0.1649    0.0000 H   0  0  0  0  0  0  0  0  0  0  0  0
   16.2549   -0.1649    0.0000 H   0  0  0  0  0  0  0  0  0  0  0  0
   27.9808   -0.3100    0.0000 H   0  0  0  0  0  0  0  0  0  0  0  0
   28.8468    1.4300    0.0000 H   0  0  0  0  0  0  0  0  0  0  0  0
    9.7942    1.4300    0.0000 H   0  0  0  0  0  0  0  0  0  0  0  0
    8.9282   -0.3100    0.0000 H   0  0  0  0  0  0  0  0  0  0  0  0
   19.8574    0.0000    0.0000 H   0  0  0  0  0  0  0  0  0  0  0  0
   36.0850    0.2731    0.0000 H   0  0  0  0  0  0  0  0  0  0  0  0
   36.3119    1.1200    0.0000 H   0  0  0  0  0  0  0  0  0  0  0  0
   35.4650    1.3469    0.0000 H   0  0  0  0  0  0  0  0  0  0  0  0
    1.6900    0.8469    0.0000 H   0  0  0  0  0  0  0  0  0  0  0  0
    1.4631    0.0000    0.0000 H   0  0  0  0  0  0  0  0  0  0  0  0
    2.3100   -0.2269    0.0000 H   0  0  0  0  0  0  0  0  0  0  0  0
   18.8530    1.2850    0.0000 H   0  0  0  0  0  0  0  0  0  0  0  0
   18.0560    1.2850    0.0000 H   0  0  0  0  0  0  0  0  0  0  0  0
   19.5326   -1.2726    0.0000 H   0  0  0  0  0  0  0  0  0  0  0  0
   19.9311   -0.5823    0.0000 H   0  0  0  0  0  0  0  0  0  0  0  0
   18.4545   -1.8100    0.0000 H   0  0  0  0  0  0  0  0  0  0  0  0
  1 38  1  0  0  0  0
 39  1  1  1  0  0  0
  2 42  1  0  0  0  0
  2 43  1  0  0  0  0
  3 38  2  0  0  0  0
  4 42  2  0  0  0  0
  5 44  1  0  0  0  0
  5116  1  0  0  0  0
  6  7  1  0  0  0  0
  6 14  1  0  0  0  0
  6 45  1  0  0  0  0
  6 46  1  0  0  0  0
  7 15  1  0  0  0  0
  7 47  1  0  0  0  0
  7 48  1  0  0  0  0
  8  9  1  0  0  0  0
  8 16  1  0  0  0  0
  8 49  1  0  0  0  0
  8 50  1  0  0  0  0
  9 18  1  0  0  0  0
  9 51  1  0  0  0  0
  9 52  1  0  0  0  0
 10 11  1  0  0  0  0
 10 17  1  0  0  0  0
 10 53  1  0  0  0  0
 10 54  1  0  0  0  0
 11 20  1  0  0  0  0
 11 55  1  0  0  0  0
 11 56  1  0  0  0  0
 12 13  1  0  0  0  0
 12 19  1  0  0  0  0
 12 57  1  0  0  0  0
 12 58  1  0  0  0  0
 13 21  1  0  0  0  0
 13 59  1  0  0  0  0
 13 60  1  0  0  0  0
 14 22  1  0  0  0  0
 14 61  1  0  0  0  0
 14 62  1  0  0  0  0
 15 23  1  0  0  0  0
 15 63  1  0  0  0  0
 15 64  1  0  0  0  0
 16 24  1  0  0  0  0
 16 65  1  0  0  0  0
 16 66  1  0  0  0  0
 17 25  1  0  0  0  0
 17 67  1  0  0  0  0
 17 68  1  0  0  0  0
 18 27  1  0  0  0  0
 18 69  1  0  0  0  0
 18 70  1  0  0  0  0
 19 26  1  0  0  0  0
 19 71  1  0  0  0  0
 19 72  1  0  0  0  0
 20 28  1  0  0  0  0
 20 73  1  0  0  0  0
 20 74  1  0  0  0  0
 21 29  1  0  0  0  0
 21 75  1  0  0  0  0
 21 76  1  0  0  0  0
 22 30  1  0  0  0  0
 22 77  1  0  0  0  0
 22 78  1  0  0  0  0
 23 34  1  0  0  0  0
 23 79  1  0  0  0  0
 23 80  1  0  0  0  0
 24 33  1  0  0  0  0
 24 81  1  0  0  0  0
 24 82  1  0  0  0  0
 25 31  1  0  0  0  0
 25 83  1  0  0  0  0
 25 84  1  0  0  0  0
 26 32  1  0  0  0  0
 26 85  1  0  0  0  0
 26 86  1  0  0  0  0
 27 36  1  0  0  0  0
 27 87  1  0  0  0  0
 27 88  1  0  0  0  0
 28 35  1  0  0  0  0
 28 89  1  0  0  0  0
 28 90  1  0  0  0  0
 29 37  1  0  0  0  0
 29 91  1  0  0  0  0
 29 92  1  0  0  0  0
 30 38  1  0  0  0  0
 30 93  1  0  0  0  0
 30 94  1  0  0  0  0
 31 40  1  0  0  0  0
 31 95  1  0  0  0  0
 31 96  1  0  0  0  0
 32 41  1  0  0  0  0
 32 97  1  0  0  0  0
 32 98  1  0  0  0  0
 33 42  1  0  0  0  0
 33 99  1  0  0  0  0
 33100  1  0  0  0  0
 34 35  2  0  0  0  0
 34101  1  0  0  0  0
 35102  1  0  0  0  0
 36 37  2  0  0  0  0
 36103  1  0  0  0  0
 37104  1  0  0  0  0
 39 43  1  0  0  0  0
 39 44  1  0  0  0  0
 39105  1  0  0  0  0
 40106  1  0  0  0  0
 40107  1  0  0  0  0
 40108  1  0  0  0  0
 41109  1  0  0  0  0
 41110  1  0  0  0  0
 41111  1  0  0  0  0
 43112  1  0  0  0  0
 43113  1  0  0  0  0
 44114  1  0  0  0  0
 44115  1  0  0  0  0
M  END
> <PUBCHEM_COMPOUND_CID>
6505653

> <PUBCHEM_COMPOUND_CANONICALIZED>
1

> <PUBCHEM_CACTVS_COMPLEXITY>
671

> <PUBCHEM_CACTVS_HBOND_ACCEPTOR>
5

> <PUBCHEM_CACTVS_HBOND_DONOR>
1

> <PUBCHEM_CACTVS_ROTATABLE_BOND>
36

> <PUBCHEM_CACTVS_SUBSKEYS>
AAADcfB8OAAAAAAAAAAAAAAAAAAAAAAAAAAAAAAAAAAAAAAAAAAAGgAACAAACBSggAICCAAABgCIACDSCAAAAAAgAAAICAEAAAgBEBIAAQACQAAFgAALAAOIyKCAAAAAAAAAAAAAAAAAAAAAAAAAAAAAAA==

> <PUBCHEM_IUPAC_OPENEYE_NAME>
[(2S)-3-hydroxy-2-[(E)-octadec-9-enoyl]oxy-propyl] (E)-octadec-9-enoate

> <PUBCHEM_IUPAC_CAS_NAME>
(E)-9-octadecenoic acid [(2S)-3-hydroxy-2-[(E)-1-oxooctadec-9-enoxy]propyl] ester

> <PUBCHEM_IUPAC_NAME_MARKUP>
[(2<I>S</I>)-3-hydroxy-2-[(<I>E</I>)-octadec-9-enoyl]oxypropyl] (<I>E</I>)-octadec-9-enoate

> <PUBCHEM_IUPAC_NAME>
[(2S)-3-hydroxy-2-[(E)-octadec-9-enoyl]oxypropyl] (E)-octadec-9-enoate

> <PUBCHEM_IUPAC_SYSTEMATIC_NAME>
[(2S)-2-[(E)-octadec-9-enoyl]oxy-3-oxidanyl-propyl] (E)-octadec-9-enoate

> <PUBCHEM_IUPAC_TRADITIONAL_NAME>
(E)-octadec-9-enoic acid [(2S)-3-hydroxy-2-[(E)-octadec-9-enoyl]oxy-propyl] ester

> <PUBCHEM_IUPAC_INCHI>
InChI=1S/C39H72O5/c1-3-5-7-9-11-13-15-17-19-21-23-25-27-29-31-33-38(41)43-36-37(35-40)44-39(42)34-32-30-28-26-24-22-20-18-16-14-12-10-8-6-4-2/h17-20,37,40H,3-16,21-36H2,1-2H3/b19-17+,20-18+/t37-/m0/s1

> <PUBCHEM_IUPAC_INCHIKEY>
AFSHUZFNMVJNKX-BIJVAZSDSA-N

> <PUBCHEM_XLOGP3_AA>
14.3

> <PUBCHEM_EXACT_MASS>
620.53797539

> <PUBCHEM_MOLECULAR_FORMULA>
C39H72O5

> <PUBCHEM_MOLECULAR_WEIGHT>
621.0

> <PUBCHEM_SMILES>
CCCCCCCC/C=C/CCCCCCCC(=O)OC[C@H](CO)OC(=O)CCCCCCC/C=C/CCCCCCCC

> <PUBCHEM_CONNECTIVITY_SMILES>
CCCCCCCCC=CCCCCCCCC(=O)OCC(CO)OC(=O)CCCCCCCC=CCCCCCCCC

> <PUBCHEM_CACTVS_TPSA>
72.8

> <PUBCHEM_MONOISOTOPIC_WEIGHT>
620.53797539

> <PUBCHEM_TOTAL_CHARGE>
0

> <PUBCHEM_HEAVY_ATOM_COUNT>
44

> <PUBCHEM_ATOM_DEF_STEREO_COUNT>
1

> <PUBCHEM_ATOM_UDEF_STEREO_COUNT>
0

> <PUBCHEM_BOND_DEF_STEREO_COUNT>
2

> <PUBCHEM_BOND_UDEF_STEREO_COUNT>
0

> <PUBCHEM_ISOTOPIC_ATOM_COUNT>
0

> <PUBCHEM_COMPONENT_COUNT>
1

> <PUBCHEM_CACTVS_TAUTO_COUNT>
-1

> <PUBCHEM_COORDINATE_TYPE>
1
5
255

> <PUBCHEM_BONDANNOTATIONS>
39  1  5

$$$$
