5315951
  -OEChem-01202622322D

 29 31  0     0  0  0  0  0  0999 V2000
    6.6498    2.1368    0.0000 O   0  0  0  0  0  0  0  0  0  0  0  0
    8.3780   -1.1187    0.0000 O   0  0  0  0  0  0  0  0  0  0  0  0
    7.0864   -2.2727    0.0000 O   0  0  0  0  0  0  0  0  0  0  0  0
    4.5274    1.5378    0.0000 N   0  0  0  0  0  0  0  0  0  0  0  0
    5.0274   -0.0011    0.0000 C   0  0  0  0  0  0  0  0  0  0  0  0
    4.0274   -0.0011    0.0000 C   0  0  0  0  0  0  0  0  0  0  0  0
    5.3364    0.9500    0.0000 C   0  0  0  0  0  0  0  0  0  0  0  0
    3.7183    0.9500    0.0000 C   0  0  0  0  0  0  0  0  0  0  0  0
    5.7123   -0.7858    0.0000 C   0  0  0  0  0  0  0  0  0  0  0  0
    6.3518    1.1822    0.0000 C   0  0  0  0  0  0  0  0  0  0  0  0
    6.7328   -0.5771    0.0000 C   0  0  0  0  0  0  0  0  0  0  0  0
    3.3424   -0.7858    0.0000 C   0  0  0  0  0  0  0  0  0  0  0  0
    2.7029    1.1822    0.0000 C   0  0  0  0  0  0  0  0  0  0  0  0
    7.0547    0.4135    0.0000 C   0  0  0  0  0  0  0  0  0  0  0  0
    2.3219   -0.5771    0.0000 C   0  0  0  0  0  0  0  0  0  0  0  0
    2.0000    0.4135    0.0000 C   0  0  0  0  0  0  0  0  0  0  0  0
    7.3991   -1.3228    0.0000 C   0  0  0  0  0  0  0  0  0  0  0  0
    9.0443   -1.8644    0.0000 C   0  0  0  0  0  0  0  0  0  0  0  0
    4.5274    2.1578    0.0000 H   0  0  0  0  0  0  0  0  0  0  0  0
    5.5139   -1.3732    0.0000 H   0  0  0  0  0  0  0  0  0  0  0  0
    3.5408   -1.3732    0.0000 H   0  0  0  0  0  0  0  0  0  0  0  0
    2.5182    1.7741    0.0000 H   0  0  0  0  0  0  0  0  0  0  0  0
    7.6607    0.5448    0.0000 H   0  0  0  0  0  0  0  0  0  0  0  0
    1.9088   -1.0395    0.0000 H   0  0  0  0  0  0  0  0  0  0  0  0
    1.3941    0.5448    0.0000 H   0  0  0  0  0  0  0  0  0  0  0  0
    7.2547    2.2727    0.0000 H   0  0  0  0  0  0  0  0  0  0  0  0
    8.5820   -2.2775    0.0000 H   0  0  0  0  0  0  0  0  0  0  0  0
    9.4574   -2.3268    0.0000 H   0  0  0  0  0  0  0  0  0  0  0  0
    9.5067   -1.4513    0.0000 H   0  0  0  0  0  0  0  0  0  0  0  0
  1 10  1  0  0  0  0
  1 26  1  0  0  0  0
  2 17  1  0  0  0  0
  2 18  1  0  0  0  0
  3 17  2  0  0  0  0
  4  7  1  0  0  0  0
  4  8  1  0  0  0  0
  4 19  1  0  0  0  0
  5  6  1  0  0  0  0
  5  7  2  0  0  0  0
  5  9  1  0  0  0  0
  6  8  1  0  0  0  0
  6 12  2  0  0  0  0
  7 10  1  0  0  0  0
  8 13  2  0  0  0  0
  9 11  2  0  0  0  0
  9 20  1  0  0  0  0
 10 14  2  0  0  0  0
 11 14  1  0  0  0  0
 11 17  1  0  0  0  0
 12 15  1  0  0  0  0
 12 21  1  0  0  0  0
 13 16  1  0  0  0  0
 13 22  1  0  0  0  0
 14 23  1  0  0  0  0
 15 16  2  0  0  0  0
 15 24  1  0  0  0  0
 16 25  1  0  0  0  0
 18 27  1  0  0  0  0
 18 28  1  0  0  0  0
 18 29  1  0  0  0  0
M  END
> <PUBCHEM_COMPOUND_CID>
5315951

> <PUBCHEM_COMPOUND_CANONICALIZED>
1

> <PUBCHEM_CACTVS_COMPLEXITY>
333

> <PUBCHEM_CACTVS_HBOND_ACCEPTOR>
3

> <PUBCHEM_CACTVS_HBOND_DONOR>
2

> <PUBCHEM_CACTVS_ROTATABLE_BOND>
2

> <PUBCHEM_CACTVS_SUBSKEYS>
AAADccByMAAAAAAAAAAAAAAAAAAAAWAAAAAwYAAAAAAAAFgB/AAAHgAQCAAADAyBngIyzvLJlgCoAyTyTASCgCAlYiAImSE3bNgKJvLStZuEcQhk0BHY+Yfa2fOeiAADAAACEAAQAAYAAAQgAAAAAAAAAA==

> <PUBCHEM_IUPAC_OPENEYE_NAME>
methyl 1-hydroxy-9H-carbazole-3-carboxylate

> <PUBCHEM_IUPAC_CAS_NAME>
1-hydroxy-9H-carbazole-3-carboxylic acid methyl ester

> <PUBCHEM_IUPAC_NAME_MARKUP>
methyl 1-hydroxy-9<I>H</I>-carbazole-3-carboxylate

> <PUBCHEM_IUPAC_NAME>
methyl 1-hydroxy-9H-carbazole-3-carboxylate

> <PUBCHEM_IUPAC_SYSTEMATIC_NAME>
methyl 1-oxidanyl-9H-carbazole-3-carboxylate

> <PUBCHEM_IUPAC_TRADITIONAL_NAME>
1-hydroxy-9H-carbazole-3-carboxylic acid methyl ester

> <PUBCHEM_IUPAC_INCHI>
InChI=1S/C14H11NO3/c1-18-14(17)8-6-10-9-4-2-3-5-11(9)15-13(10)12(16)7-8/h2-7,15-16H,1H3

> <PUBCHEM_IUPAC_INCHIKEY>
ZWPODTIRGFOENJ-UHFFFAOYSA-N

> <PUBCHEM_XLOGP3_AA>
2.9

> <PUBCHEM_EXACT_MASS>
241.07389321

> <PUBCHEM_MOLECULAR_FORMULA>
C14H11NO3

> <PUBCHEM_MOLECULAR_WEIGHT>
241.24

> <PUBCHEM_SMILES>
COC(=O)C1=CC2=C(C(=C1)O)NC3=CC=CC=C32

> <PUBCHEM_CONNECTIVITY_SMILES>
COC(=O)C1=CC2=C(C(=C1)O)NC3=CC=CC=C32

> <PUBCHEM_CACTVS_TPSA>
62.3

> <PUBCHEM_MONOISOTOPIC_WEIGHT>
241.07389321

> <PUBCHEM_TOTAL_CHARGE>
0

> <PUBCHEM_HEAVY_ATOM_COUNT>
18

> <PUBCHEM_ATOM_DEF_STEREO_COUNT>
0

> <PUBCHEM_ATOM_UDEF_STEREO_COUNT>
0

> <PUBCHEM_BOND_DEF_STEREO_COUNT>
0

> <PUBCHEM_BOND_UDEF_STEREO_COUNT>
0

> <PUBCHEM_ISOTOPIC_ATOM_COUNT>
0

> <PUBCHEM_COMPONENT_COUNT>
1

> <PUBCHEM_CACTVS_TAUTO_COUNT>
-1

> <PUBCHEM_COORDINATE_TYPE>
1
5
255

> <PUBCHEM_BONDANNOTATIONS>
10  14  8
11  14  8
12  15  8
13  16  8
15  16  8
4  7  8
4  8  8
5  6  8
5  7  8
5  9  8
6  12  8
6  8  8
7  10  8
8  13  8
9  11  8

$$$$
