139082353
  -OEChem-01202622412D

 73 76  0     1  0  0  0  0  0999 V2000
   10.1354    3.6043    0.0000 O   0  0  0  0  0  0  0  0  0  0  0  0
   10.4926    1.9095    0.0000 N   0  0  0  0  0  0  0  0  0  0  0  0
    2.8641   -2.6043    0.0000 N   0  0  0  0  0  0  0  0  0  0  0  0
    8.2572    0.4480    0.0000 C   0  0  2  0  0  0  0  0  0  0  0  0
    8.2572   -0.5520    0.0000 C   0  0  1  0  0  0  0  0  0  0  0  0
    7.3912   -1.0520    0.0000 C   0  0  2  0  0  0  0  0  0  0  0  0
    6.5251   -0.5520    0.0000 C   0  0  2  0  0  0  0  0  0  0  0  0
    9.2034    0.7527    0.0000 C   0  0  1  0  0  0  0  0  0  0  0  0
    5.6151   -1.0588    0.0000 C   0  0  1  0  0  0  0  0  0  0  0  0
    7.3912    0.9480    0.0000 C   0  0  0  0  0  0  0  0  0  0  0  0
    9.2034   -0.8567    0.0000 C   0  0  0  0  0  0  0  0  0  0  0  0
    6.5251    0.4480    0.0000 C   0  0  0  0  0  0  0  0  0  0  0  0
    9.7870   -0.0520    0.0000 C   0  0  0  0  0  0  0  0  0  0  0  0
    7.4072   -2.0935    0.0000 C   0  0  0  0  0  0  0  0  0  0  0  0
    8.2572    1.4480    0.0000 C   0  0  0  0  0  0  0  0  0  0  0  0
    5.6071   -2.1004    0.0000 C   0  0  0  0  0  0  0  0  0  0  0  0
    9.5141    1.7033    0.0000 C   0  0  1  0  0  0  0  0  0  0  0  0
    4.6883   -0.4947    0.0000 C   0  0  0  0  0  0  0  0  0  0  0  0
    6.5092   -2.6213    0.0000 C   0  0  0  0  0  0  0  0  0  0  0  0
    5.6228   -0.0589    0.0000 C   0  0  0  0  0  0  0  0  0  0  0  0
    4.6717   -2.6502    0.0000 C   0  0  0  0  0  0  0  0  0  0  0  0
    3.7404   -1.0227    0.0000 C   0  0  0  0  0  0  0  0  0  0  0  0
    3.7320   -2.1077    0.0000 C   0  0  2  0  0  0  0  0  0  0  0  0
    8.8462    2.4476    0.0000 C   0  0  0  0  0  0  0  0  0  0  0  0
   11.1604    1.1652    0.0000 C   0  0  0  0  0  0  0  0  0  0  0  0
   10.8032    2.8600    0.0000 C   0  0  0  0  0  0  0  0  0  0  0  0
    2.0000   -2.1010    0.0000 C   0  0  0  0  0  0  0  0  0  0  0  0
    2.8602   -3.6043    0.0000 C   0  0  0  0  0  0  0  0  0  0  0  0
   11.7817    3.0662    0.0000 C   0  0  0  0  0  0  0  0  0  0  0  0
    8.3471   -1.3972    0.0000 H   0  0  0  0  0  0  0  0  0  0  0  0
    8.1305   -1.4713    0.0000 H   0  0  0  0  0  0  0  0  0  0  0  0
    7.2613   -0.1270    0.0000 H   0  0  0  0  0  0  0  0  0  0  0  0
   10.0431    0.8846    0.0000 H   0  0  0  0  0  0  0  0  0  0  0  0
    7.7897    1.4230    0.0000 H   0  0  0  0  0  0  0  0  0  0  0  0
    6.9926    1.4230    0.0000 H   0  0  0  0  0  0  0  0  0  0  0  0
    8.9524   -1.4236    0.0000 H   0  0  0  0  0  0  0  0  0  0  0  0
    9.7408   -1.1659    0.0000 H   0  0  0  0  0  0  0  0  0  0  0  0
    6.3131    1.0306    0.0000 H   0  0  0  0  0  0  0  0  0  0  0  0
    5.9145    0.3404    0.0000 H   0  0  0  0  0  0  0  0  0  0  0  0
   10.2479   -0.4667    0.0000 H   0  0  0  0  0  0  0  0  0  0  0  0
   10.2479    0.3627    0.0000 H   0  0  0  0  0  0  0  0  0  0  0  0
    7.6252   -2.6739    0.0000 H   0  0  0  0  0  0  0  0  0  0  0  0
    8.0164   -1.9780    0.0000 H   0  0  0  0  0  0  0  0  0  0  0  0
    8.8772    1.4480    0.0000 H   0  0  0  0  0  0  0  0  0  0  0  0
    8.2572    2.0680    0.0000 H   0  0  0  0  0  0  0  0  0  0  0  0
    7.6372    1.4480    0.0000 H   0  0  0  0  0  0  0  0  0  0  0  0
    9.7067    2.2926    0.0000 H   0  0  0  0  0  0  0  0  0  0  0  0
    5.0965   -0.0281    0.0000 H   0  0  0  0  0  0  0  0  0  0  0  0
    4.2984   -0.0127    0.0000 H   0  0  0  0  0  0  0  0  0  0  0  0
    6.5116   -3.2412    0.0000 H   0  0  0  0  0  0  0  0  0  0  0  0
    6.2428   -0.0636    0.0000 H   0  0  0  0  0  0  0  0  0  0  0  0
    5.6276    0.5611    0.0000 H   0  0  0  0  0  0  0  0  0  0  0  0
    5.0029   -0.0541    0.0000 H   0  0  0  0  0  0  0  0  0  0  0  0
    4.2744   -3.1261    0.0000 H   0  0  0  0  0  0  0  0  0  0  0  0
    5.0726   -3.1231    0.0000 H   0  0  0  0  0  0  0  0  0  0  0  0
    3.5359   -0.4374    0.0000 H   0  0  0  0  0  0  0  0  0  0  0  0
    3.1288   -1.1241    0.0000 H   0  0  0  0  0  0  0  0  0  0  0  0
    3.7308   -2.7277    0.0000 H   0  0  0  0  0  0  0  0  0  0  0  0
    9.3077    2.8616    0.0000 H   0  0  0  0  0  0  0  0  0  0  0  0
    8.4322    2.9090    0.0000 H   0  0  0  0  0  0  0  0  0  0  0  0
    8.3848    2.0335    0.0000 H   0  0  0  0  0  0  0  0  0  0  0  0
   10.6989    0.7511    0.0000 H   0  0  0  0  0  0  0  0  0  0  0  0
   11.5745    0.7037    0.0000 H   0  0  0  0  0  0  0  0  0  0  0  0
   11.6219    1.5793    0.0000 H   0  0  0  0  0  0  0  0  0  0  0  0
    2.3121   -1.5652    0.0000 H   0  0  0  0  0  0  0  0  0  0  0  0
    1.4643   -1.7889    0.0000 H   0  0  0  0  0  0  0  0  0  0  0  0
    1.6879   -2.6367    0.0000 H   0  0  0  0  0  0  0  0  0  0  0  0
    2.2402   -3.6019    0.0000 H   0  0  0  0  0  0  0  0  0  0  0  0
    2.8579   -4.2243    0.0000 H   0  0  0  0  0  0  0  0  0  0  0  0
    3.4802   -3.6067    0.0000 H   0  0  0  0  0  0  0  0  0  0  0  0
   11.9096    2.4596    0.0000 H   0  0  0  0  0  0  0  0  0  0  0  0
   12.3884    3.1941    0.0000 H   0  0  0  0  0  0  0  0  0  0  0  0
   11.6539    3.6729    0.0000 H   0  0  0  0  0  0  0  0  0  0  0  0
  1 26  2  0  0  0  0
 17  2  1  1  0  0  0
  2 25  1  0  0  0  0
  2 26  1  0  0  0  0
 23  3  1  1  0  0  0
  3 27  1  0  0  0  0
  3 28  1  0  0  0  0
  4  5  1  0  0  0  0
  4  8  1  0  0  0  0
  4 10  1  0  0  0  0
  4 15  1  6  0  0  0
  5  6  1  0  0  0  0
  5 11  1  0  0  0  0
  5 30  1  1  0  0  0
  6  7  1  0  0  0  0
  6 14  1  0  0  0  0
  6 31  1  6  0  0  0
  7  9  1  0  0  0  0
  7 12  1  0  0  0  0
  7 32  1  1  0  0  0
  8 13  1  0  0  0  0
  8 17  1  0  0  0  0
  8 33  1  1  0  0  0
  9 16  1  0  0  0  0
  9 18  1  0  0  0  0
  9 20  1  6  0  0  0
 10 12  1  0  0  0  0
 10 34  1  0  0  0  0
 10 35  1  0  0  0  0
 11 13  1  0  0  0  0
 11 36  1  0  0  0  0
 11 37  1  0  0  0  0
 12 38  1  0  0  0  0
 12 39  1  0  0  0  0
 13 40  1  0  0  0  0
 13 41  1  0  0  0  0
 14 19  1  0  0  0  0
 14 42  1  0  0  0  0
 14 43  1  0  0  0  0
 15 44  1  0  0  0  0
 15 45  1  0  0  0  0
 15 46  1  0  0  0  0
 16 19  2  0  0  0  0
 16 21  1  0  0  0  0
 17 24  1  0  0  0  0
 17 47  1  0  0  0  0
 18 22  1  0  0  0  0
 18 48  1  0  0  0  0
 18 49  1  0  0  0  0
 19 50  1  0  0  0  0
 20 51  1  0  0  0  0
 20 52  1  0  0  0  0
 20 53  1  0  0  0  0
 21 23  1  0  0  0  0
 21 54  1  0  0  0  0
 21 55  1  0  0  0  0
 22 23  1  0  0  0  0
 22 56  1  0  0  0  0
 22 57  1  0  0  0  0
 23 58  1  0  0  0  0
 24 59  1  0  0  0  0
 24 60  1  0  0  0  0
 24 61  1  0  0  0  0
 25 62  1  0  0  0  0
 25 63  1  0  0  0  0
 25 64  1  0  0  0  0
 26 29  1  0  0  0  0
 27 65  1  0  0  0  0
 27 66  1  0  0  0  0
 27 67  1  0  0  0  0
 28 68  1  0  0  0  0
 28 69  1  0  0  0  0
 28 70  1  0  0  0  0
 29 71  1  0  0  0  0
 29 72  1  0  0  0  0
 29 73  1  0  0  0  0
M  END
> <PUBCHEM_COMPOUND_CID>
139082353

> <PUBCHEM_COMPOUND_CANONICALIZED>
1

> <PUBCHEM_CACTVS_COMPLEXITY>
684

> <PUBCHEM_CACTVS_HBOND_ACCEPTOR>
2

> <PUBCHEM_CACTVS_HBOND_DONOR>
0

> <PUBCHEM_CACTVS_ROTATABLE_BOND>
3

> <PUBCHEM_CACTVS_SUBSKEYS>
AAADcfB7IAAAAAAAAAAAAAAAAAAAAYAAAAAwYIAAAAAAAGCAAAAAHgAAAAAADyjBgAQCAAMAAACIAiFSEAAAAAAgAAAACAAIAAgAAAIAgQAEAAAAhgCIAAMQgMAPgAAAAAAAAACQAAQAACAAAQAACAAAAA==

> <PUBCHEM_IUPAC_OPENEYE_NAME>
N-[(1R)-1-[(3S,8R,9R,10S,13R,14R,17R)-3-(dimethylamino)-10,13-dimethyl-2,3,4,7,8,9,11,12,14,15,16,17-dodecahydro-1H-cyclopenta[a]phenanthren-17-yl]ethyl]-N-methyl-acetamide

> <PUBCHEM_IUPAC_CAS_NAME>
N-[(1R)-1-[(3S,8R,9R,10S,13R,14R,17R)-3-(dimethylamino)-10,13-dimethyl-2,3,4,7,8,9,11,12,14,15,16,17-dodecahydro-1H-cyclopenta[a]phenanthren-17-yl]ethyl]-N-methylacetamide

> <PUBCHEM_IUPAC_NAME_MARKUP>
<I>N</I>-[(1<I>R</I>)-1-[(3<I>S</I>,8<I>R</I>,9<I>R</I>,10<I>S</I>,13<I>R</I>,14<I>R</I>,17<I>R</I>)-3-(dimethylamino)-10,13-dimethyl-2,3,4,7,8,9,11,12,14,15,16,17-dodecahydro-1<I>H</I>-cyclopenta[a]phenanthren-17-yl]ethyl]-<I>N</I>-methylacetamide

> <PUBCHEM_IUPAC_NAME>
N-[(1R)-1-[(3S,8R,9R,10S,13R,14R,17R)-3-(dimethylamino)-10,13-dimethyl-2,3,4,7,8,9,11,12,14,15,16,17-dodecahydro-1H-cyclopenta[a]phenanthren-17-yl]ethyl]-N-methylacetamide

> <PUBCHEM_IUPAC_SYSTEMATIC_NAME>
N-[(1R)-1-[(3S,8R,9R,10S,13R,14R,17R)-3-(dimethylamino)-10,13-dimethyl-2,3,4,7,8,9,11,12,14,15,16,17-dodecahydro-1H-cyclopenta[a]phenanthren-17-yl]ethyl]-N-methyl-ethanamide

> <PUBCHEM_IUPAC_TRADITIONAL_NAME>
N-[(1R)-1-[(3S,8R,9R,10S,13R,14R,17R)-3-(dimethylamino)-10,13-dimethyl-2,3,4,7,8,9,11,12,14,15,16,17-dodecahydro-1H-cyclopenta[a]phenanthren-17-yl]ethyl]-N-methyl-acetamide

> <PUBCHEM_IUPAC_INCHI>
InChI=1S/C26H44N2O/c1-17(28(7)18(2)29)22-10-11-23-21-9-8-19-16-20(27(5)6)12-14-25(19,3)24(21)13-15-26(22,23)4/h8,17,20-24H,9-16H2,1-7H3/t17-,20+,21-,22+,23-,24-,25-,26+/m1/s1

> <PUBCHEM_IUPAC_INCHIKEY>
DNVZSDMHLPWULM-PFJMVCNFSA-N

> <PUBCHEM_XLOGP3_AA>
5.3

> <PUBCHEM_EXACT_MASS>
400.345364031

> <PUBCHEM_MOLECULAR_FORMULA>
C26H44N2O

> <PUBCHEM_MOLECULAR_WEIGHT>
400.6

> <PUBCHEM_SMILES>
C[C@H]([C@@H]1CC[C@H]2[C@]1(CC[C@@H]3[C@@H]2CC=C4[C@]3(CC[C@@H](C4)N(C)C)C)C)N(C)C(=O)C

> <PUBCHEM_CONNECTIVITY_SMILES>
CC(C1CCC2C1(CCC3C2CC=C4C3(CCC(C4)N(C)C)C)C)N(C)C(=O)C

> <PUBCHEM_CACTVS_TPSA>
23.6

> <PUBCHEM_MONOISOTOPIC_WEIGHT>
400.345364031

> <PUBCHEM_TOTAL_CHARGE>
0

> <PUBCHEM_HEAVY_ATOM_COUNT>
29

> <PUBCHEM_ATOM_DEF_STEREO_COUNT>
8

> <PUBCHEM_ATOM_UDEF_STEREO_COUNT>
0

> <PUBCHEM_BOND_DEF_STEREO_COUNT>
0

> <PUBCHEM_BOND_UDEF_STEREO_COUNT>
0

> <PUBCHEM_ISOTOPIC_ATOM_COUNT>
0

> <PUBCHEM_COMPONENT_COUNT>
1

> <PUBCHEM_CACTVS_TAUTO_COUNT>
-1

> <PUBCHEM_COORDINATE_TYPE>
1
5
255

> <PUBCHEM_BONDANNOTATIONS>
17  2  5
23  3  5
4  15  6
5  30  5
6  31  6
7  32  5
8  33  5
9  20  6

$$$$
