23994
  -OEChem-01202613412D

  1  0  0     0  0  0  0  0  0999 V2000
    2.0000    0.0000    0.0000 Zn  0  0  0  0  0  0  0  0  0  0  0  0
M  END
> <PUBCHEM_COMPOUND_CID>
23994

> <PUBCHEM_COMPOUND_CANONICALIZED>
1

> <PUBCHEM_CACTVS_COMPLEXITY>
0

> <PUBCHEM_CACTVS_HBOND_ACCEPTOR>
0

> <PUBCHEM_CACTVS_HBOND_DONOR>
0

> <PUBCHEM_CACTVS_ROTATABLE_BOND>
0

> <PUBCHEM_CACTVS_SUBSKEYS>
AAADcQAAAAAAAAACAAAAAAAAAAAAAAAAAAAAAAAAAAAAAAAAAAAAAAAAAAAAAAAAAAAAAAAAAAAAAAAAAAAAAAAAAAAAAAAAAAAAAAAAAAAAAAAAAAAAAAAAAAAAAAAAAAAAAAAAAAAAAAAAAAAAAAAAAA==

> <PUBCHEM_IUPAC_OPENEYE_NAME>
zinc

> <PUBCHEM_IUPAC_CAS_NAME>
zinc

> <PUBCHEM_IUPAC_NAME_MARKUP>
zinc

> <PUBCHEM_IUPAC_NAME>
zinc

> <PUBCHEM_IUPAC_SYSTEMATIC_NAME>
zinc

> <PUBCHEM_IUPAC_TRADITIONAL_NAME>
zinc

> <PUBCHEM_IUPAC_INCHI>
InChI=1S/Zn

> <PUBCHEM_IUPAC_INCHIKEY>
HCHKCACWOHOZIP-UHFFFAOYSA-N

> <PUBCHEM_EXACT_MASS>
63.929142

> <PUBCHEM_MOLECULAR_FORMULA>
Zn

> <PUBCHEM_MOLECULAR_WEIGHT>
65.4

> <PUBCHEM_SMILES>
[Zn]

> <PUBCHEM_CONNECTIVITY_SMILES>
[Zn]

> <PUBCHEM_CACTVS_TPSA>
0

> <PUBCHEM_MONOISOTOPIC_WEIGHT>
63.929142

> <PUBCHEM_TOTAL_CHARGE>
0

> <PUBCHEM_HEAVY_ATOM_COUNT>
1

> <PUBCHEM_ATOM_DEF_STEREO_COUNT>
0

> <PUBCHEM_ATOM_UDEF_STEREO_COUNT>
0

> <PUBCHEM_BOND_DEF_STEREO_COUNT>
0

> <PUBCHEM_BOND_UDEF_STEREO_COUNT>
0

> <PUBCHEM_ISOTOPIC_ATOM_COUNT>
0

> <PUBCHEM_COMPONENT_COUNT>
1

> <PUBCHEM_CACTVS_TAUTO_COUNT>
-1

> <PUBCHEM_COORDINATE_TYPE>
1
5
255

$$$$
