5281228
  -OEChem-01202622292D

 99100  0     1  0  0  0  0  0999 V2000
   14.4750    9.6962    0.0000 O   0  0  0  0  0  0  0  0  0  0  0  0
   10.6754    7.6674    0.0000 O   0  0  0  0  0  0  0  0  0  0  0  0
    3.8660  -10.0062    0.0000 O   0  0  0  0  0  0  0  0  0  0  0  0
   12.0263    8.8598    0.0000 C   0  0  0  0  0  0  0  0  0  0  0  0
   12.5263    7.9938    0.0000 C   0  0  2  0  0  0  0  0  0  0  0  0
   12.6954    9.6030    0.0000 C   0  0  0  0  0  0  0  0  0  0  0  0
   13.5044    8.2017    0.0000 C   0  0  0  0  0  0  0  0  0  0  0  0
   13.6090    9.1962    0.0000 C   0  0  1  0  0  0  0  0  0  0  0  0
   11.2831    9.5289    0.0000 C   0  0  0  0  0  0  0  0  0  0  0  0
   11.0415    8.6862    0.0000 C   0  0  0  0  0  0  0  0  0  0  0  0
   12.7342    7.0156    0.0000 C   0  0  0  0  0  0  0  0  0  0  0  0
   11.6603    7.4938    0.0000 C   0  0  0  0  0  0  0  0  0  0  0  0
   11.6603    6.4938    0.0000 C   0  0  0  0  0  0  0  0  0  0  0  0
   10.7942    5.9938    0.0000 C   0  0  0  0  0  0  0  0  0  0  0  0
    3.0000   -7.5062    0.0000 C   0  0  0  0  0  0  0  0  0  0  0  0
    3.0000   -8.5062    0.0000 C   0  0  0  0  0  0  0  0  0  0  0  0
    3.8660   -9.0062    0.0000 C   0  0  1  0  0  0  0  0  0  0  0  0
   10.7942    4.9938    0.0000 C   0  0  0  0  0  0  0  0  0  0  0  0
    3.8660   -7.0062    0.0000 C   0  0  0  0  0  0  0  0  0  0  0  0
    4.7321   -8.5062    0.0000 C   0  0  0  0  0  0  0  0  0  0  0  0
    4.7321   -7.5062    0.0000 C   0  0  0  0  0  0  0  0  0  0  0  0
    2.0000   -7.5062    0.0000 C   0  0  0  0  0  0  0  0  0  0  0  0
    2.5000   -6.6402    0.0000 C   0  0  0  0  0  0  0  0  0  0  0  0
   11.6603    4.4938    0.0000 C   0  0  0  0  0  0  0  0  0  0  0  0
    3.8660   -6.0062    0.0000 C   0  0  0  0  0  0  0  0  0  0  0  0
    5.5981   -7.0062    0.0000 C   0  0  0  0  0  0  0  0  0  0  0  0
    9.9282    4.4938    0.0000 C   0  0  0  0  0  0  0  0  0  0  0  0
    4.7321   -5.5062    0.0000 C   0  0  0  0  0  0  0  0  0  0  0  0
    9.9282    3.4938    0.0000 C   0  0  0  0  0  0  0  0  0  0  0  0
    4.7321   -4.5062    0.0000 C   0  0  0  0  0  0  0  0  0  0  0  0
    9.0622    2.9938    0.0000 C   0  0  0  0  0  0  0  0  0  0  0  0
    3.8660   -4.0062    0.0000 C   0  0  0  0  0  0  0  0  0  0  0  0
    5.5981   -4.0062    0.0000 C   0  0  0  0  0  0  0  0  0  0  0  0
    9.0622    1.9938    0.0000 C   0  0  0  0  0  0  0  0  0  0  0  0
    5.5981   -3.0062    0.0000 C   0  0  0  0  0  0  0  0  0  0  0  0
    9.9282    1.4938    0.0000 C   0  0  0  0  0  0  0  0  0  0  0  0
    8.1962    1.4938    0.0000 C   0  0  0  0  0  0  0  0  0  0  0  0
    6.4641   -2.5062    0.0000 C   0  0  0  0  0  0  0  0  0  0  0  0
    8.1962    0.4938    0.0000 C   0  0  0  0  0  0  0  0  0  0  0  0
    6.4641   -1.5062    0.0000 C   0  0  0  0  0  0  0  0  0  0  0  0
    7.3301   -1.0062    0.0000 C   0  0  0  0  0  0  0  0  0  0  0  0
    7.3301   -0.0062    0.0000 C   0  0  0  0  0  0  0  0  0  0  0  0
    5.5981   -1.0062    0.0000 C   0  0  0  0  0  0  0  0  0  0  0  0
   13.0054   10.1399    0.0000 H   0  0  0  0  0  0  0  0  0  0  0  0
   12.1938    9.9674    0.0000 H   0  0  0  0  0  0  0  0  0  0  0  0
   13.5692    7.5851    0.0000 H   0  0  0  0  0  0  0  0  0  0  0  0
   14.1244    8.2017    0.0000 H   0  0  0  0  0  0  0  0  0  0  0  0
   13.5765    9.8154    0.0000 H   0  0  0  0  0  0  0  0  0  0  0  0
   11.6980    9.9897    0.0000 H   0  0  0  0  0  0  0  0  0  0  0  0
   10.8224    9.9438    0.0000 H   0  0  0  0  0  0  0  0  0  0  0  0
   10.8683    9.0682    0.0000 H   0  0  0  0  0  0  0  0  0  0  0  0
   10.9338    9.2968    0.0000 H   0  0  0  0  0  0  0  0  0  0  0  0
   10.4309    8.5786    0.0000 H   0  0  0  0  0  0  0  0  0  0  0  0
   11.1491    8.0756    0.0000 H   0  0  0  0  0  0  0  0  0  0  0  0
   12.1277    6.8867    0.0000 H   0  0  0  0  0  0  0  0  0  0  0  0
   12.8631    6.4092    0.0000 H   0  0  0  0  0  0  0  0  0  0  0  0
   13.3406    7.1445    0.0000 H   0  0  0  0  0  0  0  0  0  0  0  0
   14.4750   10.3162    0.0000 H   0  0  0  0  0  0  0  0  0  0  0  0
   12.1972    6.1838    0.0000 H   0  0  0  0  0  0  0  0  0  0  0  0
   10.2573    6.3038    0.0000 H   0  0  0  0  0  0  0  0  0  0  0  0
    2.3894   -8.3986    0.0000 H   0  0  0  0  0  0  0  0  0  0  0  0
    2.7880   -9.0888    0.0000 H   0  0  0  0  0  0  0  0  0  0  0  0
    4.4030   -9.3162    0.0000 H   0  0  0  0  0  0  0  0  0  0  0  0
    4.9441   -9.0888    0.0000 H   0  0  0  0  0  0  0  0  0  0  0  0
    5.3426   -8.3986    0.0000 H   0  0  0  0  0  0  0  0  0  0  0  0
    2.0000   -6.8862    0.0000 H   0  0  0  0  0  0  0  0  0  0  0  0
    1.3800   -7.5062    0.0000 H   0  0  0  0  0  0  0  0  0  0  0  0
    2.0000   -8.1262    0.0000 H   0  0  0  0  0  0  0  0  0  0  0  0
    3.0369   -6.3302    0.0000 H   0  0  0  0  0  0  0  0  0  0  0  0
    2.1900   -6.1033    0.0000 H   0  0  0  0  0  0  0  0  0  0  0  0
    1.9631   -6.9502    0.0000 H   0  0  0  0  0  0  0  0  0  0  0  0
   11.3503    3.9569    0.0000 H   0  0  0  0  0  0  0  0  0  0  0  0
   12.1972    4.1838    0.0000 H   0  0  0  0  0  0  0  0  0  0  0  0
   11.9703    5.0307    0.0000 H   0  0  0  0  0  0  0  0  0  0  0  0
    3.3291   -5.6962    0.0000 H   0  0  0  0  0  0  0  0  0  0  0  0
    5.9081   -7.5432    0.0000 H   0  0  0  0  0  0  0  0  0  0  0  0
    6.1350   -6.6962    0.0000 H   0  0  0  0  0  0  0  0  0  0  0  0
    5.2881   -6.4693    0.0000 H   0  0  0  0  0  0  0  0  0  0  0  0
    9.3913    4.8038    0.0000 H   0  0  0  0  0  0  0  0  0  0  0  0
    4.4030  -10.3162    0.0000 H   0  0  0  0  0  0  0  0  0  0  0  0
    5.2690   -5.8162    0.0000 H   0  0  0  0  0  0  0  0  0  0  0  0
   10.4651    3.1838    0.0000 H   0  0  0  0  0  0  0  0  0  0  0  0
    8.5252    3.3038    0.0000 H   0  0  0  0  0  0  0  0  0  0  0  0
    4.1760   -3.4693    0.0000 H   0  0  0  0  0  0  0  0  0  0  0  0
    3.3291   -3.6962    0.0000 H   0  0  0  0  0  0  0  0  0  0  0  0
    3.5560   -4.5432    0.0000 H   0  0  0  0  0  0  0  0  0  0  0  0
    6.1350   -4.3162    0.0000 H   0  0  0  0  0  0  0  0  0  0  0  0
    5.0611   -2.6962    0.0000 H   0  0  0  0  0  0  0  0  0  0  0  0
    9.6182    0.9568    0.0000 H   0  0  0  0  0  0  0  0  0  0  0  0
   10.4651    1.1838    0.0000 H   0  0  0  0  0  0  0  0  0  0  0  0
   10.2382    2.0307    0.0000 H   0  0  0  0  0  0  0  0  0  0  0  0
    7.6592    1.8038    0.0000 H   0  0  0  0  0  0  0  0  0  0  0  0
    7.0010   -2.8162    0.0000 H   0  0  0  0  0  0  0  0  0  0  0  0
    8.7331    0.1838    0.0000 H   0  0  0  0  0  0  0  0  0  0  0  0
    7.8671   -1.3162    0.0000 H   0  0  0  0  0  0  0  0  0  0  0  0
    6.7932    0.3038    0.0000 H   0  0  0  0  0  0  0  0  0  0  0  0
    5.9081   -0.4693    0.0000 H   0  0  0  0  0  0  0  0  0  0  0  0
    5.0611   -0.6962    0.0000 H   0  0  0  0  0  0  0  0  0  0  0  0
    5.2881   -1.5432    0.0000 H   0  0  0  0  0  0  0  0  0  0  0  0
  8  1  1  6  0  0  0
  1 58  1  0  0  0  0
  2 12  2  0  0  0  0
 17  3  1  1  0  0  0
  3 80  1  0  0  0  0
  4  5  1  0  0  0  0
  4  6  1  0  0  0  0
  4  9  1  0  0  0  0
  4 10  1  0  0  0  0
  5  7  1  0  0  0  0
  5 11  1  6  0  0  0
  5 12  1  0  0  0  0
  6  8  1  0  0  0  0
  6 44  1  0  0  0  0
  6 45  1  0  0  0  0
  7  8  1  0  0  0  0
  7 46  1  0  0  0  0
  7 47  1  0  0  0  0
  8 48  1  0  0  0  0
  9 49  1  0  0  0  0
  9 50  1  0  0  0  0
  9 51  1  0  0  0  0
 10 52  1  0  0  0  0
 10 53  1  0  0  0  0
 10 54  1  0  0  0  0
 11 55  1  0  0  0  0
 11 56  1  0  0  0  0
 11 57  1  0  0  0  0
 12 13  1  0  0  0  0
 13 14  2  0  0  0  0
 13 59  1  0  0  0  0
 14 18  1  0  0  0  0
 14 60  1  0  0  0  0
 15 16  1  0  0  0  0
 15 19  1  0  0  0  0
 15 22  1  0  0  0  0
 15 23  1  0  0  0  0
 16 17  1  0  0  0  0
 16 61  1  0  0  0  0
 16 62  1  0  0  0  0
 17 20  1  0  0  0  0
 17 63  1  0  0  0  0
 18 24  1  0  0  0  0
 18 27  2  0  0  0  0
 19 21  2  0  0  0  0
 19 25  1  0  0  0  0
 20 21  1  0  0  0  0
 20 64  1  0  0  0  0
 20 65  1  0  0  0  0
 21 26  1  0  0  0  0
 22 66  1  0  0  0  0
 22 67  1  0  0  0  0
 22 68  1  0  0  0  0
 23 69  1  0  0  0  0
 23 70  1  0  0  0  0
 23 71  1  0  0  0  0
 24 72  1  0  0  0  0
 24 73  1  0  0  0  0
 24 74  1  0  0  0  0
 25 28  2  0  0  0  0
 25 75  1  0  0  0  0
 26 76  1  0  0  0  0
 26 77  1  0  0  0  0
 26 78  1  0  0  0  0
 27 29  1  0  0  0  0
 27 79  1  0  0  0  0
 28 30  1  0  0  0  0
 28 81  1  0  0  0  0
 29 31  2  0  0  0  0
 29 82  1  0  0  0  0
 30 32  1  0  0  0  0
 30 33  2  0  0  0  0
 31 34  1  0  0  0  0
 31 83  1  0  0  0  0
 32 84  1  0  0  0  0
 32 85  1  0  0  0  0
 32 86  1  0  0  0  0
 33 35  1  0  0  0  0
 33 87  1  0  0  0  0
 34 36  1  0  0  0  0
 34 37  2  0  0  0  0
 35 38  2  0  0  0  0
 35 88  1  0  0  0  0
 36 89  1  0  0  0  0
 36 90  1  0  0  0  0
 36 91  1  0  0  0  0
 37 39  1  0  0  0  0
 37 92  1  0  0  0  0
 38 40  1  0  0  0  0
 38 93  1  0  0  0  0
 39 42  2  0  0  0  0
 39 94  1  0  0  0  0
 40 41  2  0  0  0  0
 40 43  1  0  0  0  0
 41 42  1  0  0  0  0
 41 95  1  0  0  0  0
 42 96  1  0  0  0  0
 43 97  1  0  0  0  0
 43 98  1  0  0  0  0
 43 99  1  0  0  0  0
M  END
> <PUBCHEM_COMPOUND_CID>
5281228

> <PUBCHEM_COMPOUND_CANONICALIZED>
1

> <PUBCHEM_CACTVS_COMPLEXITY>
1310

> <PUBCHEM_CACTVS_HBOND_ACCEPTOR>
3

> <PUBCHEM_CACTVS_HBOND_DONOR>
2

> <PUBCHEM_CACTVS_ROTATABLE_BOND>
11

> <PUBCHEM_CACTVS_SUBSKEYS>
AAADcfB8MAAAAAAAAAAAAAAAAAAAAYAAAAAgAAAAAAAAAAAAAAAAGgAACAAADhSggAICAAAAAgCIAqBSAAAAAAAgAAAICAEAAEgIEBIAAQAAQAAEwAAIgYOKzMDPgAAAAAAAAAAAAAAAAAAAAIAACAAAAA==

> <PUBCHEM_IUPAC_OPENEYE_NAME>
(2E,4E,6E,8E,10E,12E,14E,16E,18E)-19-[(4R)-4-hydroxy-2,6,6-trimethyl-cyclohexen-1-yl]-1-[(1R,4S)-4-hydroxy-1,2,2-trimethyl-cyclopentyl]-4,8,13,17-tetramethyl-nonadeca-2,4,6,8,10,12,14,16,18-nonaen-1-one

> <PUBCHEM_IUPAC_CAS_NAME>
(2E,4E,6E,8E,10E,12E,14E,16E,18E)-19-[(4R)-4-hydroxy-2,6,6-trimethyl-1-cyclohexenyl]-1-[(1R,4S)-4-hydroxy-1,2,2-trimethylcyclopentyl]-4,8,13,17-tetramethyl-1-nonadeca-2,4,6,8,10,12,14,16,18-nonaenone

> <PUBCHEM_IUPAC_NAME_MARKUP>
(2<I>E</I>,4<I>E</I>,6<I>E</I>,8<I>E</I>,10<I>E</I>,12<I>E</I>,14<I>E</I>,16<I>E</I>,18<I>E</I>)-19-[(4<I>R</I>)-4-hydroxy-2,6,6-trimethylcyclohexen-1-yl]-1-[(1<I>R</I>,4<I>S</I>)-4-hydroxy-1,2,2-trimethylcyclopentyl]-4,8,13,17-tetramethylnonadeca-2,4,6,8,10,12,14,16,18-nonaen-1-one

> <PUBCHEM_IUPAC_NAME>
(2E,4E,6E,8E,10E,12E,14E,16E,18E)-19-[(4R)-4-hydroxy-2,6,6-trimethylcyclohexen-1-yl]-1-[(1R,4S)-4-hydroxy-1,2,2-trimethylcyclopentyl]-4,8,13,17-tetramethylnonadeca-2,4,6,8,10,12,14,16,18-nonaen-1-one

> <PUBCHEM_IUPAC_SYSTEMATIC_NAME>
(2E,4E,6E,8E,10E,12E,14E,16E,18E)-4,8,13,17-tetramethyl-19-[(4R)-2,6,6-trimethyl-4-oxidanyl-cyclohexen-1-yl]-1-[(1R,4S)-1,2,2-trimethyl-4-oxidanyl-cyclopentyl]nonadeca-2,4,6,8,10,12,14,16,18-nonaen-1-one

> <PUBCHEM_IUPAC_TRADITIONAL_NAME>
(2E,4E,6E,8E,10E,12E,14E,16E,18E)-19-[(4R)-4-hydroxy-2,6,6-trimethyl-cyclohexen-1-yl]-1-[(1R,4S)-4-hydroxy-1,2,2-trimethyl-cyclopentyl]-4,8,13,17-tetramethyl-nonadeca-2,4,6,8,10,12,14,16,18-nonaen-1-one

> <PUBCHEM_IUPAC_INCHI>
InChI=1S/C40H56O3/c1-29(17-13-19-31(3)21-23-36-33(5)25-34(41)26-38(36,6)7)15-11-12-16-30(2)18-14-20-32(4)22-24-37(43)40(10)28-35(42)27-39(40,8)9/h11-24,34-35,41-42H,25-28H2,1-10H3/b12-11+,17-13+,18-14+,23-21+,24-22+,29-15+,30-16+,31-19+,32-20+/t34-,35+,40+/m1/s1

> <PUBCHEM_IUPAC_INCHIKEY>
VYIRVAXUEZSDNC-RDJLEWNRSA-N

> <PUBCHEM_XLOGP3_AA>
10.6

> <PUBCHEM_EXACT_MASS>
584.42294564

> <PUBCHEM_MOLECULAR_FORMULA>
C40H56O3

> <PUBCHEM_MOLECULAR_WEIGHT>
584.9

> <PUBCHEM_SMILES>
CC1=C(C(C[C@@H](C1)O)(C)C)/C=C/C(=C/C=C/C(=C/C=C/C=C(\C)/C=C/C=C(\C)/C=C/C(=O)[C@@]2(C[C@H](CC2(C)C)O)C)/C)/C

> <PUBCHEM_CONNECTIVITY_SMILES>
CC1=C(C(CC(C1)O)(C)C)C=CC(=CC=CC(=CC=CC=C(C)C=CC=C(C)C=CC(=O)C2(CC(CC2(C)C)O)C)C)C

> <PUBCHEM_CACTVS_TPSA>
57.5

> <PUBCHEM_MONOISOTOPIC_WEIGHT>
584.42294564

> <PUBCHEM_TOTAL_CHARGE>
0

> <PUBCHEM_HEAVY_ATOM_COUNT>
43

> <PUBCHEM_ATOM_DEF_STEREO_COUNT>
3

> <PUBCHEM_ATOM_UDEF_STEREO_COUNT>
0

> <PUBCHEM_BOND_DEF_STEREO_COUNT>
9

> <PUBCHEM_BOND_UDEF_STEREO_COUNT>
0

> <PUBCHEM_ISOTOPIC_ATOM_COUNT>
0

> <PUBCHEM_COMPONENT_COUNT>
1

> <PUBCHEM_CACTVS_TAUTO_COUNT>
-1

> <PUBCHEM_COORDINATE_TYPE>
1
5
255

> <PUBCHEM_BONDANNOTATIONS>
8  1  6
17  3  5
5  11  6

$$$$
