656506
  -OEChem-01202622272D

 49 51  0     1  0  0  0  0  0999 V2000
    6.0010   -0.7342    0.0000 S   0  0  0  0  0  0  0  0  0  0  0  0
    4.2690    2.2658    0.0000 S   0  0  0  0  0  0  0  0  0  0  0  0
    4.2690   -0.7342    0.0000 O   0  0  0  0  0  0  0  0  0  0  0  0
    4.2690   -3.7342    0.0000 O   0  0  0  0  0  0  0  0  0  0  0  0
    2.5369   -2.7342    0.0000 O   0  0  0  0  0  0  0  0  0  0  0  0
    6.0010   -2.7342    0.0000 O   0  0  0  0  0  0  0  0  0  0  0  0
    2.5369    0.2658    0.0000 O   0  0  0  0  0  0  0  0  0  0  0  0
    5.1350    1.7658    0.0000 O   0  0  0  0  0  0  0  0  0  0  0  0
    3.4030    2.7658    0.0000 O   0  0  0  0  0  0  0  0  0  0  0  0
    4.7690    3.1318    0.0000 O   0  0  0  0  0  0  0  0  0  0  0  0
    3.7690    1.3998    0.0000 O   0  0  0  0  0  0  0  0  0  0  0  0
    6.3671    3.2956    0.0000 N   0  0  0  0  0  0  0  0  0  0  0  0
    5.1350    0.7658    0.0000 N   0  0  0  0  0  0  0  0  0  0  0  0
    4.2690   -2.7342    0.0000 C   0  0  1  0  0  0  0  0  0  0  0  0
    3.4030   -2.2342    0.0000 C   0  0  1  0  0  0  0  0  0  0  0  0
    5.1350   -2.2342    0.0000 C   0  0  2  0  0  0  0  0  0  0  0  0
    3.4030   -1.2342    0.0000 C   0  0  1  0  0  0  0  0  0  0  0  0
    5.1350   -1.2342    0.0000 C   0  0  2  0  0  0  0  0  0  0  0  0
    2.5369   -0.7342    0.0000 C   0  0  0  0  0  0  0  0  0  0  0  0
    6.0010    0.2658    0.0000 C   0  0  0  0  0  0  0  0  0  0  0  0
    6.8671    0.7658    0.0000 C   0  0  0  0  0  0  0  0  0  0  0  0
    6.8671    1.7658    0.0000 C   0  0  0  0  0  0  0  0  0  0  0  0
    7.6718    2.3494    0.0000 C   0  0  0  0  0  0  0  0  0  0  0  0
    7.3611    3.2999    0.0000 C   0  0  0  0  0  0  0  0  0  0  0  0
    6.0623    2.3494    0.0000 C   0  0  0  0  0  0  0  0  0  0  0  0
    8.6503    2.1432    0.0000 C   0  0  0  0  0  0  0  0  0  0  0  0
    8.0290    4.0442    0.0000 C   0  0  0  0  0  0  0  0  0  0  0  0
    9.3181    2.8875    0.0000 C   0  0  0  0  0  0  0  0  0  0  0  0
    9.0075    3.8380    0.0000 C   0  0  0  0  0  0  0  0  0  0  0  0
    4.8059   -3.0442    0.0000 H   0  0  0  0  0  0  0  0  0  0  0  0
    3.4030   -2.8542    0.0000 H   0  0  0  0  0  0  0  0  0  0  0  0
    5.6720   -1.9242    0.0000 H   0  0  0  0  0  0  0  0  0  0  0  0
    3.4030   -0.6142    0.0000 H   0  0  0  0  0  0  0  0  0  0  0  0
    5.1350   -0.6142    0.0000 H   0  0  0  0  0  0  0  0  0  0  0  0
    1.9264   -0.6266    0.0000 H   0  0  0  0  0  0  0  0  0  0  0  0
    2.3249   -1.3168    0.0000 H   0  0  0  0  0  0  0  0  0  0  0  0
    3.7321   -4.0442    0.0000 H   0  0  0  0  0  0  0  0  0  0  0  0
    2.0000   -2.4242    0.0000 H   0  0  0  0  0  0  0  0  0  0  0  0
    6.5380   -2.4242    0.0000 H   0  0  0  0  0  0  0  0  0  0  0  0
    7.0791    0.1832    0.0000 H   0  0  0  0  0  0  0  0  0  0  0  0
    7.4776    0.8734    0.0000 H   0  0  0  0  0  0  0  0  0  0  0  0
    2.0000    0.5758    0.0000 H   0  0  0  0  0  0  0  0  0  0  0  0
    5.4730    2.1568    0.0000 H   0  0  0  0  0  0  0  0  0  0  0  0
    6.0009    3.7959    0.0000 H   0  0  0  0  0  0  0  0  0  0  0  0
    8.8429    1.5539    0.0000 H   0  0  0  0  0  0  0  0  0  0  0  0
    7.8364    4.6335    0.0000 H   0  0  0  0  0  0  0  0  0  0  0  0
    9.9248    2.7596    0.0000 H   0  0  0  0  0  0  0  0  0  0  0  0
    9.4216    4.2995    0.0000 H   0  0  0  0  0  0  0  0  0  0  0  0
    3.4030    3.3858    0.0000 H   0  0  0  0  0  0  0  0  0  0  0  0
 18  1  1  1  0  0  0
  1 20  1  0  0  0  0
  2  8  1  0  0  0  0
  2  9  1  0  0  0  0
  2 10  2  0  0  0  0
  2 11  2  0  0  0  0
  3 17  1  0  0  0  0
  3 18  1  0  0  0  0
 14  4  1  1  0  0  0
  4 37  1  0  0  0  0
 15  5  1  6  0  0  0
  5 38  1  0  0  0  0
 16  6  1  6  0  0  0
  6 39  1  0  0  0  0
  7 19  1  0  0  0  0
  7 42  1  0  0  0  0
  8 13  1  0  0  0  0
  9 49  1  0  0  0  0
 12 24  1  0  0  0  0
 12 25  1  0  0  0  0
 12 44  1  0  0  0  0
 13 20  2  3  0  0  0
 14 15  1  0  0  0  0
 14 16  1  0  0  0  0
 14 30  1  0  0  0  0
 15 17  1  0  0  0  0
 15 31  1  0  0  0  0
 16 18  1  0  0  0  0
 16 32  1  0  0  0  0
 17 19  1  1  0  0  0
 17 33  1  0  0  0  0
 18 34  1  0  0  0  0
 19 35  1  0  0  0  0
 19 36  1  0  0  0  0
 20 21  1  0  0  0  0
 21 22  1  0  0  0  0
 21 40  1  0  0  0  0
 21 41  1  0  0  0  0
 22 23  1  0  0  0  0
 22 25  2  0  0  0  0
 23 24  1  0  0  0  0
 23 26  2  0  0  0  0
 24 27  2  0  0  0  0
 25 43  1  0  0  0  0
 26 28  1  0  0  0  0
 26 45  1  0  0  0  0
 27 29  1  0  0  0  0
 27 46  1  0  0  0  0
 28 29  2  0  0  0  0
 28 47  1  0  0  0  0
 29 48  1  0  0  0  0
M  END
> <PUBCHEM_COMPOUND_CID>
656506

> <PUBCHEM_COMPOUND_CANONICALIZED>
1

> <PUBCHEM_CACTVS_COMPLEXITY>
686

> <PUBCHEM_CACTVS_HBOND_ACCEPTOR>
11

> <PUBCHEM_CACTVS_HBOND_DONOR>
6

> <PUBCHEM_CACTVS_ROTATABLE_BOND>
7

> <PUBCHEM_CACTVS_SUBSKEYS>
AAADceB7PABgAAAAAAAAAAAAAAAAAWAAAAA0QAAAAAAAAFgB8AAAHgQUCAAADBzl3ga8wPLZloigAzRnRDCCgCAxAjAI2aA4ZJgJMOLgkZGGYAhlkADryAfQ4MQOgAAAAAACAAAAAAAAAAQAAAAAAAAAAA==

> <PUBCHEM_IUPAC_OPENEYE_NAME>
[(2S,3R,4S,5S,6R)-3,4,5-trihydroxy-6-(hydroxymethyl)tetrahydropyran-2-yl] 2-(1H-indol-3-yl)-N-sulfooxy-ethanimidothioate

> <PUBCHEM_IUPAC_CAS_NAME>
2-(1H-indol-3-yl)-N-sulfooxyethanimidothioic acid [(2S,3R,4S,5S,6R)-3,4,5-trihydroxy-6-(hydroxymethyl)-2-oxanyl] ester

> <PUBCHEM_IUPAC_NAME_MARKUP>
[(2<I>S</I>,3<I>R</I>,4<I>S</I>,5<I>S</I>,6<I>R</I>)-3,4,5-trihydroxy-6-(hydroxymethyl)oxan-2-yl] 2-(1<I>H</I>-indol-3-yl)-<I>N</I>-sulfooxyethanimidothioate

> <PUBCHEM_IUPAC_NAME>
[(2S,3R,4S,5S,6R)-3,4,5-trihydroxy-6-(hydroxymethyl)oxan-2-yl] 2-(1H-indol-3-yl)-N-sulfooxyethanimidothioate

> <PUBCHEM_IUPAC_SYSTEMATIC_NAME>
[(2S,3R,4S,5S,6R)-6-(hydroxymethyl)-3,4,5-tris(oxidanyl)oxan-2-yl] 2-(1H-indol-3-yl)-N-sulfooxy-ethanimidothioate

> <PUBCHEM_IUPAC_TRADITIONAL_NAME>
2-(1H-indol-3-yl)-N-sulfoxy-thioacetimidic acid [(2S,3R,4S,5S,6R)-3,4,5-trihydroxy-6-methylol-tetrahydropyran-2-yl] ester

> <PUBCHEM_IUPAC_INCHI>
InChI=1S/C16H20N2O9S2/c19-7-11-13(20)14(21)15(22)16(26-11)28-12(18-27-29(23,24)25)5-8-6-17-10-4-2-1-3-9(8)10/h1-4,6,11,13-17,19-22H,5,7H2,(H,23,24,25)/t11-,13-,14+,15-,16+/m1/s1

> <PUBCHEM_IUPAC_INCHIKEY>
DNDNWOWHUWNBCK-JZYAIQKZSA-N

> <PUBCHEM_XLOGP3_AA>
-0.1

> <PUBCHEM_EXACT_MASS>
448.06102257

> <PUBCHEM_MOLECULAR_FORMULA>
C16H20N2O9S2

> <PUBCHEM_MOLECULAR_WEIGHT>
448.5

> <PUBCHEM_SMILES>
C1=CC=C2C(=C1)C(=CN2)CC(=NOS(=O)(=O)O)S[C@H]3[C@@H]([C@H]([C@@H]([C@H](O3)CO)O)O)O

> <PUBCHEM_CONNECTIVITY_SMILES>
C1=CC=C2C(=C1)C(=CN2)CC(=NOS(=O)(=O)O)SC3C(C(C(C(O3)CO)O)O)O

> <PUBCHEM_CACTVS_TPSA>
216

> <PUBCHEM_MONOISOTOPIC_WEIGHT>
448.06102257

> <PUBCHEM_TOTAL_CHARGE>
0

> <PUBCHEM_HEAVY_ATOM_COUNT>
29

> <PUBCHEM_ATOM_DEF_STEREO_COUNT>
5

> <PUBCHEM_ATOM_UDEF_STEREO_COUNT>
0

> <PUBCHEM_BOND_DEF_STEREO_COUNT>
0

> <PUBCHEM_BOND_UDEF_STEREO_COUNT>
1

> <PUBCHEM_ISOTOPIC_ATOM_COUNT>
0

> <PUBCHEM_COMPONENT_COUNT>
1

> <PUBCHEM_CACTVS_TAUTO_COUNT>
-1

> <PUBCHEM_COORDINATE_TYPE>
1
5
255

> <PUBCHEM_BONDANNOTATIONS>
18  1  5
12  24  8
12  25  8
13  20  1
17  19  5
22  23  8
22  25  8
23  24  8
23  26  8
24  27  8
26  28  8
27  29  8
28  29  8
14  4  5
15  5  6
16  6  6

$$$$
