6451084
  -OEChem-01202613552D

 82 86  0     1  0  0  0  0  0999 V2000
    7.2764   -4.5547    0.0000 O   0  0  0  0  0  0  0  0  0  0  0  0
    6.9192   -1.2505    0.0000 O   0  0  0  0  0  0  0  0  0  0  0  0
    8.5655   -1.7885    0.0000 O   0  0  0  0  0  0  0  0  0  0  0  0
    5.4641   -5.7500    0.0000 O   0  0  0  0  0  0  0  0  0  0  0  0
   10.8600   -5.4821    0.0000 O   0  0  0  0  0  0  0  0  0  0  0  0
   11.8600   -3.7500    0.0000 O   0  0  0  0  0  0  0  0  0  0  0  0
    3.7321    0.2500    0.0000 O   0  0  0  0  0  0  0  0  0  0  0  0
    8.5190    0.8568    0.0000 O   0  0  0  0  0  0  0  0  0  0  0  0
    8.8762   -0.8380    0.0000 O   0  0  0  0  0  0  0  0  0  0  0  0
    5.4641    0.2500    0.0000 O   0  0  0  0  0  0  0  0  0  0  0  0
    9.1403    2.7579    0.0000 O   0  0  0  0  0  0  0  0  0  0  0  0
    7.8046    4.2465    0.0000 O   0  0  0  0  0  0  0  0  0  0  0  0
    4.5981    2.7500    0.0000 O   0  0  0  0  0  0  0  0  0  0  0  0
    5.4641    1.2500    0.0000 O   0  0  0  0  0  0  0  0  0  0  0  0
    4.5981    4.7500    0.0000 O   0  0  0  0  0  0  0  0  0  0  0  0
    2.8660    5.7500    0.0000 O   0  0  0  0  0  0  0  0  0  0  0  0
    7.2764   -2.9453    0.0000 C   0  0  2  0  0  0  0  0  0  0  0  0
    7.8600   -3.7500    0.0000 C   0  0  1  0  0  0  0  0  0  0  0  0
    6.3301   -3.2500    0.0000 C   0  0  0  0  0  0  0  0  0  0  0  0
    6.3301   -4.2500    0.0000 C   0  0  0  0  0  0  0  0  0  0  0  0
    8.8600   -3.7500    0.0000 C   0  0  0  0  0  0  0  0  0  0  0  0
    5.4641   -2.7500    0.0000 C   0  0  0  0  0  0  0  0  0  0  0  0
    7.5870   -1.9948    0.0000 C   0  0  0  0  0  0  0  0  0  0  0  0
    5.4641   -4.7500    0.0000 C   0  0  0  0  0  0  0  0  0  0  0  0
    4.5981   -3.2500    0.0000 C   0  0  0  0  0  0  0  0  0  0  0  0
    9.3600   -4.6160    0.0000 C   0  0  0  0  0  0  0  0  0  0  0  0
    9.3600   -2.8840    0.0000 C   0  0  0  0  0  0  0  0  0  0  0  0
    4.5981   -4.2500    0.0000 C   0  0  0  0  0  0  0  0  0  0  0  0
    5.4641   -1.7500    0.0000 C   0  0  0  0  0  0  0  0  0  0  0  0
    7.2298   -0.2999    0.0000 C   0  0  2  0  0  0  0  0  0  0  0  0
   10.3600   -4.6160    0.0000 C   0  0  0  0  0  0  0  0  0  0  0  0
   10.3600   -2.8840    0.0000 C   0  0  0  0  0  0  0  0  0  0  0  0
    6.5620    0.4444    0.0000 C   0  0  0  0  0  0  0  0  0  0  0  0
   10.8600   -3.7500    0.0000 C   0  0  0  0  0  0  0  0  0  0  0  0
    4.5981   -1.2500    0.0000 C   0  0  0  0  0  0  0  0  0  0  0  0
    6.8727    1.3949    0.0000 C   0  0  0  0  0  0  0  0  0  0  0  0
    8.2083   -0.0937    0.0000 C   0  0  0  0  0  0  0  0  0  0  0  0
    4.5981   -0.2500    0.0000 C   0  0  0  0  0  0  0  0  0  0  0  0
    7.8512    1.6011    0.0000 C   0  0  0  0  0  0  0  0  0  0  0  0
    6.2048    2.1392    0.0000 C   0  0  0  0  0  0  0  0  0  0  0  0
    3.7321    1.2500    0.0000 C   0  0  2  0  0  0  0  0  0  0  0  0
    2.8660    1.7500    0.0000 C   0  0  0  0  0  0  0  0  0  0  0  0
    8.1618    2.5516    0.0000 C   0  0  0  0  0  0  0  0  0  0  0  0
    6.5155    3.0897    0.0000 C   0  0  0  0  0  0  0  0  0  0  0  0
    7.4940    3.2959    0.0000 C   0  0  0  0  0  0  0  0  0  0  0  0
    2.8660    2.7500    0.0000 C   0  0  0  0  0  0  0  0  0  0  0  0
    4.5981    1.7500    0.0000 C   0  0  0  0  0  0  0  0  0  0  0  0
    3.7321    3.2500    0.0000 C   0  0  0  0  0  0  0  0  0  0  0  0
    2.0000    3.2500    0.0000 C   0  0  0  0  0  0  0  0  0  0  0  0
    3.7321    4.2500    0.0000 C   0  0  0  0  0  0  0  0  0  0  0  0
    2.0000    4.2500    0.0000 C   0  0  0  0  0  0  0  0  0  0  0  0
    2.8660    4.7500    0.0000 C   0  0  0  0  0  0  0  0  0  0  0  0
    6.8389   -2.5059    0.0000 H   0  0  0  0  0  0  0  0  0  0  0  0
    8.1417   -4.3023    0.0000 H   0  0  0  0  0  0  0  0  0  0  0  0
    4.0611   -2.9400    0.0000 H   0  0  0  0  0  0  0  0  0  0  0  0
    9.0500   -5.1530    0.0000 H   0  0  0  0  0  0  0  0  0  0  0  0
    9.0500   -2.3470    0.0000 H   0  0  0  0  0  0  0  0  0  0  0  0
    4.0611   -4.5600    0.0000 H   0  0  0  0  0  0  0  0  0  0  0  0
    6.0010   -1.4400    0.0000 H   0  0  0  0  0  0  0  0  0  0  0  0
    7.6439   -0.7614    0.0000 H   0  0  0  0  0  0  0  0  0  0  0  0
   10.6700   -2.3470    0.0000 H   0  0  0  0  0  0  0  0  0  0  0  0
    6.0151    0.7364    0.0000 H   0  0  0  0  0  0  0  0  0  0  0  0
    6.1794   -0.0435    0.0000 H   0  0  0  0  0  0  0  0  0  0  0  0
    4.9272   -6.0600    0.0000 H   0  0  0  0  0  0  0  0  0  0  0  0
    4.0611   -1.5600    0.0000 H   0  0  0  0  0  0  0  0  0  0  0  0
   10.5500   -6.0190    0.0000 H   0  0  0  0  0  0  0  0  0  0  0  0
    8.2652    1.1397    0.0000 H   0  0  0  0  0  0  0  0  0  0  0  0
    5.5981    2.0113    0.0000 H   0  0  0  0  0  0  0  0  0  0  0  0
   12.1700   -3.2131    0.0000 H   0  0  0  0  0  0  0  0  0  0  0  0
    4.2690    0.9400    0.0000 H   0  0  0  0  0  0  0  0  0  0  0  0
    2.2554    1.8577    0.0000 H   0  0  0  0  0  0  0  0  0  0  0  0
    2.6540    1.1674    0.0000 H   0  0  0  0  0  0  0  0  0  0  0  0
    6.1014    3.5512    0.0000 H   0  0  0  0  0  0  0  0  0  0  0  0
    9.1257    0.9847    0.0000 H   0  0  0  0  0  0  0  0  0  0  0  0
    4.2690    2.9400    0.0000 H   0  0  0  0  0  0  0  0  0  0  0  0
    1.4631    2.9400    0.0000 H   0  0  0  0  0  0  0  0  0  0  0  0
    9.3329    3.3472    0.0000 H   0  0  0  0  0  0  0  0  0  0  0  0
    1.4631    4.5600    0.0000 H   0  0  0  0  0  0  0  0  0  0  0  0
    7.3906    4.7079    0.0000 H   0  0  0  0  0  0  0  0  0  0  0  0
    5.1350    3.0600    0.0000 H   0  0  0  0  0  0  0  0  0  0  0  0
    4.5981    5.3700    0.0000 H   0  0  0  0  0  0  0  0  0  0  0  0
    2.3291    6.0600    0.0000 H   0  0  0  0  0  0  0  0  0  0  0  0
  1 18  1  0  0  0  0
  1 20  1  0  0  0  0
  2 23  1  0  0  0  0
 30  2  1  6  0  0  0
  3 23  2  0  0  0  0
  4 24  1  0  0  0  0
  4 64  1  0  0  0  0
  5 31  1  0  0  0  0
  5 66  1  0  0  0  0
  6 34  1  0  0  0  0
  6 69  1  0  0  0  0
  7 38  1  0  0  0  0
 41  7  1  6  0  0  0
  8 37  1  0  0  0  0
  8 74  1  0  0  0  0
  9 37  2  0  0  0  0
 10 38  2  0  0  0  0
 11 43  1  0  0  0  0
 11 77  1  0  0  0  0
 12 45  1  0  0  0  0
 12 79  1  0  0  0  0
 13 47  1  0  0  0  0
 13 80  1  0  0  0  0
 14 47  2  0  0  0  0
 15 50  1  0  0  0  0
 15 81  1  0  0  0  0
 16 52  1  0  0  0  0
 16 82  1  0  0  0  0
 17 18  1  0  0  0  0
 17 19  1  0  0  0  0
 17 23  1  6  0  0  0
 17 53  1  0  0  0  0
 18 21  1  1  0  0  0
 18 54  1  0  0  0  0
 19 20  1  0  0  0  0
 19 22  2  0  0  0  0
 20 24  2  0  0  0  0
 21 26  2  0  0  0  0
 21 27  1  0  0  0  0
 22 25  1  0  0  0  0
 22 29  1  0  0  0  0
 24 28  1  0  0  0  0
 25 28  2  0  0  0  0
 25 55  1  0  0  0  0
 26 31  1  0  0  0  0
 26 56  1  0  0  0  0
 27 32  2  0  0  0  0
 27 57  1  0  0  0  0
 28 58  1  0  0  0  0
 29 35  2  0  0  0  0
 29 59  1  0  0  0  0
 30 33  1  0  0  0  0
 30 37  1  0  0  0  0
 30 60  1  0  0  0  0
 31 34  2  0  0  0  0
 32 34  1  0  0  0  0
 32 61  1  0  0  0  0
 33 36  1  0  0  0  0
 33 62  1  0  0  0  0
 33 63  1  0  0  0  0
 35 38  1  0  0  0  0
 35 65  1  0  0  0  0
 36 39  2  0  0  0  0
 36 40  1  0  0  0  0
 39 43  1  0  0  0  0
 39 67  1  0  0  0  0
 40 44  2  0  0  0  0
 40 68  1  0  0  0  0
 41 42  1  0  0  0  0
 41 47  1  0  0  0  0
 41 70  1  0  0  0  0
 42 46  1  0  0  0  0
 42 71  1  0  0  0  0
 42 72  1  0  0  0  0
 43 45  2  0  0  0  0
 44 45  1  0  0  0  0
 44 73  1  0  0  0  0
 46 48  2  0  0  0  0
 46 49  1  0  0  0  0
 48 50  1  0  0  0  0
 48 75  1  0  0  0  0
 49 51  2  0  0  0  0
 49 76  1  0  0  0  0
 50 52  2  0  0  0  0
 51 52  1  0  0  0  0
 51 78  1  0  0  0  0
M  END
> <PUBCHEM_COMPOUND_CID>
6451084

> <PUBCHEM_COMPOUND_CANONICALIZED>
1

> <PUBCHEM_CACTVS_COMPLEXITY>
1290

> <PUBCHEM_CACTVS_HBOND_ACCEPTOR>
16

> <PUBCHEM_CACTVS_HBOND_DONOR>
9

> <PUBCHEM_CACTVS_ROTATABLE_BOND>
14

> <PUBCHEM_CACTVS_SUBSKEYS>
AAADceB8PgAAAAAAAAAAAAAAAAAAASAAAAAwYMGAAAAAAEgBVAAAGgAACAAADRSgmAIwDoAABgCIAiDSCAICCAAgIAAIiAFGiMgNJjaGNR6CeCOl4BELuYfK7PzOoAABAAAYQABAAAIAADCAAAAAAAAAAA==

> <PUBCHEM_IUPAC_OPENEYE_NAME>
(2R)-2-[(E)-3-[(2S,3S)-3-[(1R)-1-carboxy-2-(3,4-dihydroxyphenyl)ethoxy]carbonyl-2-(3,4-dihydroxyphenyl)-7-hydroxy-2,3-dihydrobenzofuran-4-yl]prop-2-enoyl]oxy-3-(3,4-dihydroxyphenyl)propanoic acid

> <PUBCHEM_IUPAC_CAS_NAME>
(2R)-2-[(E)-3-[(2S,3S)-3-[[(1R)-1-carboxy-2-(3,4-dihydroxyphenyl)ethoxy]-oxomethyl]-2-(3,4-dihydroxyphenyl)-7-hydroxy-2,3-dihydrobenzofuran-4-yl]-1-oxoprop-2-enoxy]-3-(3,4-dihydroxyphenyl)propanoic acid

> <PUBCHEM_IUPAC_NAME_MARKUP>
(2<I>R</I>)-2-[(<I>E</I>)-3-[(2<I>S</I>,3<I>S</I>)-3-[(1<I>R</I>)-1-carboxy-2-(3,4-dihydroxyphenyl)ethoxy]carbonyl-2-(3,4-dihydroxyphenyl)-7-hydroxy-2,3-dihydro-1-benzofuran-4-yl]prop-2-enoyl]oxy-3-(3,4-dihydroxyphenyl)propanoic acid

> <PUBCHEM_IUPAC_NAME>
(2R)-2-[(E)-3-[(2S,3S)-3-[(1R)-1-carboxy-2-(3,4-dihydroxyphenyl)ethoxy]carbonyl-2-(3,4-dihydroxyphenyl)-7-hydroxy-2,3-dihydro-1-benzofuran-4-yl]prop-2-enoyl]oxy-3-(3,4-dihydroxyphenyl)propanoic acid

> <PUBCHEM_IUPAC_SYSTEMATIC_NAME>
(2R)-3-[3,4-bis(oxidanyl)phenyl]-2-[(E)-3-[(2S,3S)-2-[3,4-bis(oxidanyl)phenyl]-3-[(2R)-3-[3,4-bis(oxidanyl)phenyl]-1-oxidanyl-1-oxidanylidene-propan-2-yl]oxycarbonyl-7-oxidanyl-2,3-dihydro-1-benzofuran-4-yl]prop-2-enoyl]oxy-propanoic acid

> <PUBCHEM_IUPAC_TRADITIONAL_NAME>
(2R)-2-[(E)-3-[(2S,3S)-3-[(1R)-1-carboxy-2-(3,4-dihydroxyphenyl)ethoxy]carbonyl-2-(3,4-dihydroxyphenyl)-7-hydroxy-coumaran-4-yl]acryloyl]oxy-3-(3,4-dihydroxyphenyl)propionic acid

> <PUBCHEM_IUPAC_INCHI>
InChI=1S/C36H30O16/c37-20-6-1-16(11-24(20)41)13-27(34(45)46)50-29(44)10-5-18-3-9-23(40)33-30(18)31(32(52-33)19-4-8-22(39)26(43)15-19)36(49)51-28(35(47)48)14-17-2-7-21(38)25(42)12-17/h1-12,15,27-28,31-32,37-43H,13-14H2,(H,45,46)(H,47,48)/b10-5+/t27-,28-,31+,32-/m1/s1

> <PUBCHEM_IUPAC_INCHIKEY>
SNKFFCBZYFGCQN-VWUOOIFGSA-N

> <PUBCHEM_XLOGP3_AA>
4

> <PUBCHEM_EXACT_MASS>
718.15338487

> <PUBCHEM_MOLECULAR_FORMULA>
C36H30O16

> <PUBCHEM_MOLECULAR_WEIGHT>
718.6

> <PUBCHEM_SMILES>
C1=CC(=C(C=C1C[C@H](C(=O)O)OC(=O)/C=C/C2=C3[C@@H]([C@H](OC3=C(C=C2)O)C4=CC(=C(C=C4)O)O)C(=O)O[C@H](CC5=CC(=C(C=C5)O)O)C(=O)O)O)O

> <PUBCHEM_CONNECTIVITY_SMILES>
C1=CC(=C(C=C1CC(C(=O)O)OC(=O)C=CC2=C3C(C(OC3=C(C=C2)O)C4=CC(=C(C=C4)O)O)C(=O)OC(CC5=CC(=C(C=C5)O)O)C(=O)O)O)O

> <PUBCHEM_CACTVS_TPSA>
278

> <PUBCHEM_MONOISOTOPIC_WEIGHT>
718.15338487

> <PUBCHEM_TOTAL_CHARGE>
0

> <PUBCHEM_HEAVY_ATOM_COUNT>
52

> <PUBCHEM_ATOM_DEF_STEREO_COUNT>
4

> <PUBCHEM_ATOM_UDEF_STEREO_COUNT>
0

> <PUBCHEM_BOND_DEF_STEREO_COUNT>
1

> <PUBCHEM_BOND_UDEF_STEREO_COUNT>
0

> <PUBCHEM_ISOTOPIC_ATOM_COUNT>
0

> <PUBCHEM_COMPONENT_COUNT>
1

> <PUBCHEM_CACTVS_TAUTO_COUNT>
-1

> <PUBCHEM_COORDINATE_TYPE>
1
5
255

> <PUBCHEM_BONDANNOTATIONS>
17  23  6
18  21  5
19  20  8
19  22  8
30  2  6
20  24  8
21  26  8
21  27  8
22  25  8
24  28  8
25  28  8
26  31  8
27  32  8
31  34  8
32  34  8
36  39  8
36  40  8
39  43  8
40  44  8
43  45  8
44  45  8
46  48  8
46  49  8
48  50  8
49  51  8
50  52  8
51  52  8
41  7  6

$$$$
