11227325
  -OEChem-01202622372D

 99100  0     1  0  0  0  0  0999 V2000
    2.3100   -8.0000    0.0000 O   0  0  0  0  0  0  0  0  0  0  0  0
    4.1760  -10.5000    0.0000 O   0  0  0  0  0  0  0  0  0  0  0  0
   11.1042   10.5000    0.0000 O   0  0  0  0  0  0  0  0  0  0  0  0
    5.9081   -6.5000    0.0000 O   0  0  0  0  0  0  0  0  0  0  0  0
   12.8363    4.5000    0.0000 O   0  0  0  0  0  0  0  0  0  0  0  0
    5.0421   -8.0000    0.0000 C   0  0  0  0  0  0  0  0  0  0  0  0
    3.3100   -8.0000    0.0000 C   0  0  1  0  0  0  0  0  0  0  0  0
    5.0421   -9.0000    0.0000 C   0  0  0  0  0  0  0  0  0  0  0  0
    4.1760   -7.5000    0.0000 C   0  0  0  0  0  0  0  0  0  0  0  0
    4.1760   -9.5000    0.0000 C   0  0  1  0  0  0  0  0  0  0  0  0
    3.3100   -9.0000    0.0000 C   0  0  0  0  0  0  0  0  0  0  0  0
    6.0421   -8.0000    0.0000 C   0  0  0  0  0  0  0  0  0  0  0  0
    5.5421   -7.1340    0.0000 C   0  0  0  0  0  0  0  0  0  0  0  0
    2.8100   -7.1340    0.0000 C   0  0  0  0  0  0  0  0  0  0  0  0
    4.1760   -6.5000    0.0000 C   0  0  0  0  0  0  0  0  0  0  0  0
   10.2382    8.0000    0.0000 C   0  0  0  0  0  0  0  0  0  0  0  0
   10.2382    9.0000    0.0000 C   0  0  0  0  0  0  0  0  0  0  0  0
   11.1042    9.5000    0.0000 C   0  0  1  0  0  0  0  0  0  0  0  0
    5.0421   -6.0000    0.0000 C   0  0  0  0  0  0  0  0  0  0  0  0
   11.1042    7.5000    0.0000 C   0  0  0  0  0  0  0  0  0  0  0  0
   11.9703    9.0000    0.0000 C   0  0  0  0  0  0  0  0  0  0  0  0
   11.9703    8.0000    0.0000 C   0  0  0  0  0  0  0  0  0  0  0  0
    9.2382    8.0000    0.0000 C   0  0  0  0  0  0  0  0  0  0  0  0
    9.7382    7.1340    0.0000 C   0  0  0  0  0  0  0  0  0  0  0  0
    5.0421   -5.0000    0.0000 C   0  0  0  0  0  0  0  0  0  0  0  0
   12.8363    7.5000    0.0000 C   0  0  0  0  0  0  0  0  0  0  0  0
   11.1042    6.5000    0.0000 C   0  0  0  0  0  0  0  0  0  0  0  0
    4.1760   -4.5000    0.0000 C   0  0  0  0  0  0  0  0  0  0  0  0
    5.9081   -4.5000    0.0000 C   0  0  0  0  0  0  0  0  0  0  0  0
   11.1042    5.5000    0.0000 C   0  0  0  0  0  0  0  0  0  0  0  0
    5.9081   -3.5000    0.0000 C   0  0  0  0  0  0  0  0  0  0  0  0
   11.1042    4.5000    0.0000 C   0  0  0  0  0  0  0  0  0  0  0  0
    6.7741   -3.0000    0.0000 C   0  0  0  0  0  0  0  0  0  0  0  0
   11.9703    4.0000    0.0000 C   0  0  0  0  0  0  0  0  0  0  0  0
   10.2382    4.0000    0.0000 C   0  0  0  0  0  0  0  0  0  0  0  0
    6.7741   -2.0000    0.0000 C   0  0  0  0  0  0  0  0  0  0  0  0
   10.2382    3.0000    0.0000 C   0  0  0  0  0  0  0  0  0  0  0  0
    5.9081   -1.5000    0.0000 C   0  0  0  0  0  0  0  0  0  0  0  0
    7.6401   -1.5000    0.0000 C   0  0  0  0  0  0  0  0  0  0  0  0
    9.3722    2.5000    0.0000 C   0  0  0  0  0  0  0  0  0  0  0  0
    7.6401   -0.5000    0.0000 C   0  0  0  0  0  0  0  0  0  0  0  0
    9.3722    1.5000    0.0000 C   0  0  0  0  0  0  0  0  0  0  0  0
    8.5062    0.0000    0.0000 C   0  0  0  0  0  0  0  0  0  0  0  0
    8.5062    1.0000    0.0000 C   0  0  0  0  0  0  0  0  0  0  0  0
   10.2382    1.0000    0.0000 C   0  0  0  0  0  0  0  0  0  0  0  0
    5.2541   -9.5826    0.0000 H   0  0  0  0  0  0  0  0  0  0  0  0
    5.6526   -8.8923    0.0000 H   0  0  0  0  0  0  0  0  0  0  0  0
    4.7130   -9.8100    0.0000 H   0  0  0  0  0  0  0  0  0  0  0  0
    2.6994   -8.8923    0.0000 H   0  0  0  0  0  0  0  0  0  0  0  0
    3.0980   -9.5826    0.0000 H   0  0  0  0  0  0  0  0  0  0  0  0
    6.0421   -8.6200    0.0000 H   0  0  0  0  0  0  0  0  0  0  0  0
    6.6621   -8.0000    0.0000 H   0  0  0  0  0  0  0  0  0  0  0  0
    6.0421   -7.3800    0.0000 H   0  0  0  0  0  0  0  0  0  0  0  0
    6.0790   -7.4440    0.0000 H   0  0  0  0  0  0  0  0  0  0  0  0
    5.8521   -6.5970    0.0000 H   0  0  0  0  0  0  0  0  0  0  0  0
    5.0051   -6.8240    0.0000 H   0  0  0  0  0  0  0  0  0  0  0  0
    3.3469   -6.8240    0.0000 H   0  0  0  0  0  0  0  0  0  0  0  0
    2.5000   -6.5970    0.0000 H   0  0  0  0  0  0  0  0  0  0  0  0
    2.2731   -7.4440    0.0000 H   0  0  0  0  0  0  0  0  0  0  0  0
    3.6391   -6.1900    0.0000 H   0  0  0  0  0  0  0  0  0  0  0  0
    2.0000   -8.5369    0.0000 H   0  0  0  0  0  0  0  0  0  0  0  0
    4.7130  -10.8100    0.0000 H   0  0  0  0  0  0  0  0  0  0  0  0
   10.0262    9.5826    0.0000 H   0  0  0  0  0  0  0  0  0  0  0  0
    9.6276    8.8923    0.0000 H   0  0  0  0  0  0  0  0  0  0  0  0
   11.6412    9.8100    0.0000 H   0  0  0  0  0  0  0  0  0  0  0  0
   12.5808    8.8923    0.0000 H   0  0  0  0  0  0  0  0  0  0  0  0
   12.1823    9.5826    0.0000 H   0  0  0  0  0  0  0  0  0  0  0  0
    9.2382    8.6200    0.0000 H   0  0  0  0  0  0  0  0  0  0  0  0
    8.6182    8.0000    0.0000 H   0  0  0  0  0  0  0  0  0  0  0  0
    9.2382    7.3800    0.0000 H   0  0  0  0  0  0  0  0  0  0  0  0
    9.2013    7.4440    0.0000 H   0  0  0  0  0  0  0  0  0  0  0  0
    9.4282    6.5970    0.0000 H   0  0  0  0  0  0  0  0  0  0  0  0
   10.2751    6.8240    0.0000 H   0  0  0  0  0  0  0  0  0  0  0  0
   12.5263    6.9631    0.0000 H   0  0  0  0  0  0  0  0  0  0  0  0
   13.3732    7.1900    0.0000 H   0  0  0  0  0  0  0  0  0  0  0  0
   13.1463    8.0369    0.0000 H   0  0  0  0  0  0  0  0  0  0  0  0
   11.6412   10.8100    0.0000 H   0  0  0  0  0  0  0  0  0  0  0  0
    4.4860   -3.9631    0.0000 H   0  0  0  0  0  0  0  0  0  0  0  0
    3.6391   -4.1900    0.0000 H   0  0  0  0  0  0  0  0  0  0  0  0
    3.8660   -5.0369    0.0000 H   0  0  0  0  0  0  0  0  0  0  0  0
    6.4450   -4.8100    0.0000 H   0  0  0  0  0  0  0  0  0  0  0  0
    5.3711   -3.1900    0.0000 H   0  0  0  0  0  0  0  0  0  0  0  0
    7.3110   -3.3100    0.0000 H   0  0  0  0  0  0  0  0  0  0  0  0
   11.5717    3.5251    0.0000 H   0  0  0  0  0  0  0  0  0  0  0  0
   12.3688    3.5251    0.0000 H   0  0  0  0  0  0  0  0  0  0  0  0
    9.7013    4.3100    0.0000 H   0  0  0  0  0  0  0  0  0  0  0  0
   10.7751    2.6900    0.0000 H   0  0  0  0  0  0  0  0  0  0  0  0
   13.3732    4.1900    0.0000 H   0  0  0  0  0  0  0  0  0  0  0  0
    6.2181   -0.9631    0.0000 H   0  0  0  0  0  0  0  0  0  0  0  0
    5.3711   -1.1900    0.0000 H   0  0  0  0  0  0  0  0  0  0  0  0
    5.5981   -2.0369    0.0000 H   0  0  0  0  0  0  0  0  0  0  0  0
    8.1771   -1.8100    0.0000 H   0  0  0  0  0  0  0  0  0  0  0  0
    8.8352    2.8100    0.0000 H   0  0  0  0  0  0  0  0  0  0  0  0
    7.1032   -0.1900    0.0000 H   0  0  0  0  0  0  0  0  0  0  0  0
    9.0431   -0.3100    0.0000 H   0  0  0  0  0  0  0  0  0  0  0  0
    7.9692    1.3100    0.0000 H   0  0  0  0  0  0  0  0  0  0  0  0
    9.9282    0.4631    0.0000 H   0  0  0  0  0  0  0  0  0  0  0  0
   10.7751    0.6900    0.0000 H   0  0  0  0  0  0  0  0  0  0  0  0
   10.5482    1.5369    0.0000 H   0  0  0  0  0  0  0  0  0  0  0  0
  7  1  1  1  0  0  0
  1 61  1  0  0  0  0
 10  2  1  6  0  0  0
  2 62  1  0  0  0  0
 18  3  1  6  0  0  0
  3 77  1  0  0  0  0
  4 19  2  0  0  0  0
  5 34  1  0  0  0  0
  5 88  1  0  0  0  0
  6  8  1  0  0  0  0
  6  9  1  0  0  0  0
  6 12  1  0  0  0  0
  6 13  1  0  0  0  0
  7  9  1  0  0  0  0
  7 11  1  0  0  0  0
  7 14  1  0  0  0  0
  8 10  1  0  0  0  0
  8 46  1  0  0  0  0
  8 47  1  0  0  0  0
  9 15  2  0  0  0  0
 10 11  1  0  0  0  0
 10 48  1  0  0  0  0
 11 49  1  0  0  0  0
 11 50  1  0  0  0  0
 12 51  1  0  0  0  0
 12 52  1  0  0  0  0
 12 53  1  0  0  0  0
 13 54  1  0  0  0  0
 13 55  1  0  0  0  0
 13 56  1  0  0  0  0
 14 57  1  0  0  0  0
 14 58  1  0  0  0  0
 14 59  1  0  0  0  0
 15 19  1  0  0  0  0
 15 60  1  0  0  0  0
 16 17  1  0  0  0  0
 16 20  1  0  0  0  0
 16 23  1  0  0  0  0
 16 24  1  0  0  0  0
 17 18  1  0  0  0  0
 17 63  1  0  0  0  0
 17 64  1  0  0  0  0
 18 21  1  0  0  0  0
 18 65  1  0  0  0  0
 19 25  1  0  0  0  0
 20 22  2  0  0  0  0
 20 27  1  0  0  0  0
 21 22  1  0  0  0  0
 21 66  1  0  0  0  0
 21 67  1  0  0  0  0
 22 26  1  0  0  0  0
 23 68  1  0  0  0  0
 23 69  1  0  0  0  0
 23 70  1  0  0  0  0
 24 71  1  0  0  0  0
 24 72  1  0  0  0  0
 24 73  1  0  0  0  0
 25 28  1  0  0  0  0
 25 29  2  0  0  0  0
 26 74  1  0  0  0  0
 26 75  1  0  0  0  0
 26 76  1  0  0  0  0
 27 30  3  0  0  0  0
 28 78  1  0  0  0  0
 28 79  1  0  0  0  0
 28 80  1  0  0  0  0
 29 31  1  0  0  0  0
 29 81  1  0  0  0  0
 30 32  1  0  0  0  0
 31 33  2  0  0  0  0
 31 82  1  0  0  0  0
 32 34  1  0  0  0  0
 32 35  2  0  0  0  0
 33 36  1  0  0  0  0
 33 83  1  0  0  0  0
 34 84  1  0  0  0  0
 34 85  1  0  0  0  0
 35 37  1  0  0  0  0
 35 86  1  0  0  0  0
 36 38  1  0  0  0  0
 36 39  2  0  0  0  0
 37 40  2  0  0  0  0
 37 87  1  0  0  0  0
 38 89  1  0  0  0  0
 38 90  1  0  0  0  0
 38 91  1  0  0  0  0
 39 41  1  0  0  0  0
 39 92  1  0  0  0  0
 40 42  1  0  0  0  0
 40 93  1  0  0  0  0
 41 43  2  0  0  0  0
 41 94  1  0  0  0  0
 42 44  2  0  0  0  0
 42 45  1  0  0  0  0
 43 44  1  0  0  0  0
 43 95  1  0  0  0  0
 44 96  1  0  0  0  0
 45 97  1  0  0  0  0
 45 98  1  0  0  0  0
 45 99  1  0  0  0  0
M  END
> <PUBCHEM_COMPOUND_CID>
11227325

> <PUBCHEM_COMPOUND_CANONICALIZED>
1

> <PUBCHEM_CACTVS_COMPLEXITY>
1450

> <PUBCHEM_CACTVS_HBOND_ACCEPTOR>
5

> <PUBCHEM_CACTVS_HBOND_DONOR>
4

> <PUBCHEM_CACTVS_ROTATABLE_BOND>
11

> <PUBCHEM_CACTVS_SUBSKEYS>
AAADcfB8OAAAAAAAAAAAAAAAAAAAAAAAAAAwQAAAAAAAAAAAAAAAGgAACAAADlSggAICAAAAAgDIEqBSAAgAAAAgAAAICAEAAEgIFAIAAQAAUAAFwAAIkYOA4NQPAAAAAAAAAAAAAAYQAAAAAAAAAAAAAA==

> <PUBCHEM_IUPAC_OPENEYE_NAME>
(1E,3E,5E,7E,9E,11E,13E,15Z)-1-[(2R,4S)-2,4-dihydroxy-2,6,6-trimethyl-cyclohexylidene]-16-(hydroxymethyl)-18-[(4R)-4-hydroxy-2,6,6-trimethyl-cyclohexen-1-yl]-3,7,12-trimethyl-octadeca-3,5,7,9,11,13,15-heptaen-17-yn-2-one

> <PUBCHEM_IUPAC_CAS_NAME>
(1E,3E,5E,7E,9E,11E,13E,15Z)-1-[(2R,4S)-2,4-dihydroxy-2,6,6-trimethylcyclohexylidene]-16-(hydroxymethyl)-18-[(4R)-4-hydroxy-2,6,6-trimethyl-1-cyclohexenyl]-3,7,12-trimethyl-2-octadeca-3,5,7,9,11,13,15-heptaen-17-ynone

> <PUBCHEM_IUPAC_NAME_MARKUP>
(1<I>E</I>,3<I>E</I>,5<I>E</I>,7<I>E</I>,9<I>E</I>,11<I>E</I>,13<I>E</I>,15<I>Z</I>)-1-[(2<I>R</I>,4<I>S</I>)-2,4-dihydroxy-2,6,6-trimethylcyclohexylidene]-16-(hydroxymethyl)-18-[(4<I>R</I>)-4-hydroxy-2,6,6-trimethylcyclohexen-1-yl]-3,7,12-trimethyloctadeca-3,5,7,9,11,13,15-heptaen-17-yn-2-one

> <PUBCHEM_IUPAC_NAME>
(1E,3E,5E,7E,9E,11E,13E,15Z)-1-[(2R,4S)-2,4-dihydroxy-2,6,6-trimethylcyclohexylidene]-16-(hydroxymethyl)-18-[(4R)-4-hydroxy-2,6,6-trimethylcyclohexen-1-yl]-3,7,12-trimethyloctadeca-3,5,7,9,11,13,15-heptaen-17-yn-2-one

> <PUBCHEM_IUPAC_SYSTEMATIC_NAME>
(1E,3E,5E,7E,9E,11E,13E,15Z)-16-(hydroxymethyl)-3,7,12-trimethyl-1-[(4S,6R)-2,2,6-trimethyl-4,6-bis(oxidanyl)cyclohexylidene]-18-[(4R)-2,6,6-trimethyl-4-oxidanyl-cyclohexen-1-yl]octadeca-3,5,7,9,11,13,15-heptaen-17-yn-2-one

> <PUBCHEM_IUPAC_TRADITIONAL_NAME>
(1E,3E,5E,7E,9E,11E,13E,15Z)-1-[(2R,4S)-2,4-dihydroxy-2,6,6-trimethyl-cyclohexylidene]-18-[(4R)-4-hydroxy-2,6,6-trimethyl-cyclohexen-1-yl]-3,7,12-trimethyl-16-methylol-octadeca-3,5,7,9,11,13,15-heptaen-17-yn-2-one

> <PUBCHEM_IUPAC_INCHI>
InChI=1S/C40H54O5/c1-28(16-12-18-30(3)36(44)23-37-39(7,8)25-34(43)26-40(37,9)45)14-10-11-15-29(2)17-13-19-32(27-41)20-21-35-31(4)22-33(42)24-38(35,5)6/h10-19,23,33-34,41-43,45H,22,24-27H2,1-9H3/b11-10+,16-12+,17-13+,28-14+,29-15+,30-18+,32-19-,37-23+/t33-,34+,40-/m1/s1

> <PUBCHEM_IUPAC_INCHIKEY>
FLFJZZNKVVNCFQ-YBZZSZPVSA-N

> <PUBCHEM_XLOGP3_AA>
7.2

> <PUBCHEM_EXACT_MASS>
614.39712482

> <PUBCHEM_MOLECULAR_FORMULA>
C40H54O5

> <PUBCHEM_MOLECULAR_WEIGHT>
614.9

> <PUBCHEM_SMILES>
CC1=C(C(C[C@@H](C1)O)(C)C)C#C/C(=C/C=C/C(=C/C=C/C=C(\C)/C=C/C=C(\C)/C(=O)/C=C\2/[C@](C[C@H](CC2(C)C)O)(C)O)/C)/CO

> <PUBCHEM_CONNECTIVITY_SMILES>
CC1=C(C(CC(C1)O)(C)C)C#CC(=CC=CC(=CC=CC=C(C)C=CC=C(C)C(=O)C=C2C(CC(CC2(C)O)O)(C)C)C)CO

> <PUBCHEM_CACTVS_TPSA>
98

> <PUBCHEM_MONOISOTOPIC_WEIGHT>
614.39712482

> <PUBCHEM_TOTAL_CHARGE>
0

> <PUBCHEM_HEAVY_ATOM_COUNT>
45

> <PUBCHEM_ATOM_DEF_STEREO_COUNT>
3

> <PUBCHEM_ATOM_UDEF_STEREO_COUNT>
0

> <PUBCHEM_BOND_DEF_STEREO_COUNT>
8

> <PUBCHEM_BOND_UDEF_STEREO_COUNT>
0

> <PUBCHEM_ISOTOPIC_ATOM_COUNT>
0

> <PUBCHEM_COMPONENT_COUNT>
1

> <PUBCHEM_CACTVS_TAUTO_COUNT>
-1

> <PUBCHEM_COORDINATE_TYPE>
1
5
255

> <PUBCHEM_BONDANNOTATIONS>
7  1  5
10  2  6
18  3  6

$$$$
