101316920
  -OEChem-01202622392D

 90 93  0     1  0  0  0  0  0999 V2000
    2.5357   -2.9568    0.0000 O   0  0  0  0  0  0  0  0  0  0  0  0
    7.9288   -0.9044    0.0000 C   0  0  2  0  0  0  0  0  0  0  0  0
    7.9288    0.0956    0.0000 C   0  0  1  0  0  0  0  0  0  0  0  0
    7.0628   -1.4044    0.0000 C   0  0  1  0  0  0  0  0  0  0  0  0
    8.8750    0.4003    0.0000 C   0  0  2  0  0  0  0  0  0  0  0  0
    5.2868   -1.4113    0.0000 C   0  0  2  0  0  0  0  0  0  0  0  0
    8.8750   -1.2092    0.0000 C   0  0  0  0  0  0  0  0  0  0  0  0
    6.1968   -0.9044    0.0000 C   0  0  0  0  0  0  0  0  0  0  0  0
    5.2787   -2.4529    0.0000 C   0  0  1  0  0  0  0  0  0  0  0  0
    9.4586   -0.4044    0.0000 C   0  0  0  0  0  0  0  0  0  0  0  0
    7.0628    0.5956    0.0000 C   0  0  0  0  0  0  0  0  0  0  0  0
    7.0789   -2.4459    0.0000 C   0  0  0  0  0  0  0  0  0  0  0  0
    6.1808   -2.9737    0.0000 C   0  0  0  0  0  0  0  0  0  0  0  0
    4.3433   -3.0026    0.0000 C   0  0  0  0  0  0  0  0  0  0  0  0
    7.9288   -1.9044    0.0000 C   0  0  0  0  0  0  0  0  0  0  0  0
    9.1857    1.3508    0.0000 C   0  0  1  0  0  0  0  0  0  0  0  0
    6.1968    0.0956    0.0000 C   0  0  0  0  0  0  0  0  0  0  0  0
    7.9288    1.0956    0.0000 C   0  0  0  0  0  0  0  0  0  0  0  0
    4.3599   -0.8472    0.0000 C   0  0  0  0  0  0  0  0  0  0  0  0
    3.4037   -2.4601    0.0000 C   0  0  2  0  0  0  0  0  0  0  0  0
    3.4120   -1.3751    0.0000 C   0  0  0  0  0  0  0  0  0  0  0  0
    5.2945   -0.4113    0.0000 C   0  0  0  0  0  0  0  0  0  0  0  0
   10.1642    1.5570    0.0000 C   0  0  0  0  0  0  0  0  0  0  0  0
    3.8467   -3.8705    0.0000 C   0  0  0  0  0  0  0  0  0  0  0  0
    4.8466   -3.8667    0.0000 C   0  0  0  0  0  0  0  0  0  0  0  0
    8.5179    2.0951    0.0000 C   0  0  0  0  0  0  0  0  0  0  0  0
   10.4749    2.5076    0.0000 C   0  0  3  0  0  0  0  0  0  0  0  0
   11.4534    2.7138    0.0000 C   0  0  0  0  0  0  0  0  0  0  0  0
    9.8070    3.2519    0.0000 C   0  0  0  0  0  0  0  0  0  0  0  0
   11.2472    3.6923    0.0000 C   0  0  0  0  0  0  0  0  0  0  0  0
   11.6596    1.7353    0.0000 C   0  0  0  0  0  0  0  0  0  0  0  0
   12.4319    2.9200    0.0000 C   0  0  0  0  0  0  0  0  0  0  0  0
   12.7425    3.8705    0.0000 C   0  0  0  0  0  0  0  0  0  0  0  0
   13.0997    2.1757    0.0000 C   0  0  0  0  0  0  0  0  0  0  0  0
    7.8022   -1.8237    0.0000 H   0  0  0  0  0  0  0  0  0  0  0  0
    9.7148    0.5322    0.0000 H   0  0  0  0  0  0  0  0  0  0  0  0
    8.6240   -1.7760    0.0000 H   0  0  0  0  0  0  0  0  0  0  0  0
    9.4124   -1.5184    0.0000 H   0  0  0  0  0  0  0  0  0  0  0  0
    5.2820   -3.3029    0.0000 H   0  0  0  0  0  0  0  0  0  0  0  0
    9.9195   -0.8191    0.0000 H   0  0  0  0  0  0  0  0  0  0  0  0
    9.9195    0.0103    0.0000 H   0  0  0  0  0  0  0  0  0  0  0  0
    7.4613    1.0705    0.0000 H   0  0  0  0  0  0  0  0  0  0  0  0
    6.6643    1.0705    0.0000 H   0  0  0  0  0  0  0  0  0  0  0  0
    7.2969   -3.0263    0.0000 H   0  0  0  0  0  0  0  0  0  0  0  0
    7.6880   -2.3304    0.0000 H   0  0  0  0  0  0  0  0  0  0  0  0
    5.7835   -3.4496    0.0000 H   0  0  0  0  0  0  0  0  0  0  0  0
    6.5818   -3.4466    0.0000 H   0  0  0  0  0  0  0  0  0  0  0  0
    7.3088   -1.9044    0.0000 H   0  0  0  0  0  0  0  0  0  0  0  0
    7.9288   -2.5244    0.0000 H   0  0  0  0  0  0  0  0  0  0  0  0
    8.5488   -1.9044    0.0000 H   0  0  0  0  0  0  0  0  0  0  0  0
    9.3783    1.9402    0.0000 H   0  0  0  0  0  0  0  0  0  0  0  0
    5.6598    0.4056    0.0000 H   0  0  0  0  0  0  0  0  0  0  0  0
    8.5488    1.0956    0.0000 H   0  0  0  0  0  0  0  0  0  0  0  0
    7.9288    1.7156    0.0000 H   0  0  0  0  0  0  0  0  0  0  0  0
    7.3088    1.0956    0.0000 H   0  0  0  0  0  0  0  0  0  0  0  0
    4.7681   -0.3805    0.0000 H   0  0  0  0  0  0  0  0  0  0  0  0
    3.9700   -0.3651    0.0000 H   0  0  0  0  0  0  0  0  0  0  0  0
    2.8686   -2.1470    0.0000 H   0  0  0  0  0  0  0  0  0  0  0  0
    3.2075   -0.7898    0.0000 H   0  0  0  0  0  0  0  0  0  0  0  0
    2.8004   -1.4765    0.0000 H   0  0  0  0  0  0  0  0  0  0  0  0
    5.9145   -0.4161    0.0000 H   0  0  0  0  0  0  0  0  0  0  0  0
    5.2993    0.2087    0.0000 H   0  0  0  0  0  0  0  0  0  0  0  0
    4.6745   -0.4065    0.0000 H   0  0  0  0  0  0  0  0  0  0  0  0
   10.1848    0.9374    0.0000 H   0  0  0  0  0  0  0  0  0  0  0  0
   10.7780    1.4697    0.0000 H   0  0  0  0  0  0  0  0  0  0  0  0
    3.3085   -3.5626    0.0000 H   0  0  0  0  0  0  0  0  0  0  0  0
    3.5387   -4.4087    0.0000 H   0  0  0  0  0  0  0  0  0  0  0  0
    4.3848   -4.1785    0.0000 H   0  0  0  0  0  0  0  0  0  0  0  0
    4.3109   -4.1788    0.0000 H   0  0  0  0  0  0  0  0  0  0  0  0
    5.1587   -4.4024    0.0000 H   0  0  0  0  0  0  0  0  0  0  0  0
    5.3824   -3.5546    0.0000 H   0  0  0  0  0  0  0  0  0  0  0  0
    8.9793    2.5092    0.0000 H   0  0  0  0  0  0  0  0  0  0  0  0
    8.1038    2.5566    0.0000 H   0  0  0  0  0  0  0  0  0  0  0  0
    8.0564    1.6811    0.0000 H   0  0  0  0  0  0  0  0  0  0  0  0
   10.6675    3.0969    0.0000 H   0  0  0  0  0  0  0  0  0  0  0  0
    2.0000   -2.6447    0.0000 H   0  0  0  0  0  0  0  0  0  0  0  0
   10.2685    3.6659    0.0000 H   0  0  0  0  0  0  0  0  0  0  0  0
    9.3930    3.7133    0.0000 H   0  0  0  0  0  0  0  0  0  0  0  0
    9.3456    2.8378    0.0000 H   0  0  0  0  0  0  0  0  0  0  0  0
   11.8538    3.8202    0.0000 H   0  0  0  0  0  0  0  0  0  0  0  0
   11.1193    4.2990    0.0000 H   0  0  0  0  0  0  0  0  0  0  0  0
   10.6405    3.5644    0.0000 H   0  0  0  0  0  0  0  0  0  0  0  0
   11.0529    1.6074    0.0000 H   0  0  0  0  0  0  0  0  0  0  0  0
   11.7875    1.1286    0.0000 H   0  0  0  0  0  0  0  0  0  0  0  0
   12.2663    1.8631    0.0000 H   0  0  0  0  0  0  0  0  0  0  0  0
   13.3319    3.6779    0.0000 H   0  0  0  0  0  0  0  0  0  0  0  0
   12.9352    4.4599    0.0000 H   0  0  0  0  0  0  0  0  0  0  0  0
   12.1532    4.0631    0.0000 H   0  0  0  0  0  0  0  0  0  0  0  0
   12.9071    1.5864    0.0000 H   0  0  0  0  0  0  0  0  0  0  0  0
   13.7064    2.3036    0.0000 H   0  0  0  0  0  0  0  0  0  0  0  0
 20  1  1  1  0  0  0
  1 76  1  0  0  0  0
  2  3  1  0  0  0  0
  2  4  1  0  0  0  0
  2  7  1  0  0  0  0
  2 15  1  6  0  0  0
  3  5  1  0  0  0  0
  3 11  1  0  0  0  0
  3 18  1  1  0  0  0
  4  8  1  0  0  0  0
  4 12  1  0  0  0  0
  4 35  1  1  0  0  0
  5 10  1  0  0  0  0
  5 16  1  0  0  0  0
  5 36  1  6  0  0  0
  6  8  1  0  0  0  0
  6  9  1  0  0  0  0
  6 19  1  0  0  0  0
  6 22  1  1  0  0  0
  7 10  1  0  0  0  0
  7 37  1  0  0  0  0
  7 38  1  0  0  0  0
  8 17  2  0  0  0  0
  9 13  1  0  0  0  0
  9 14  1  0  0  0  0
  9 39  1  6  0  0  0
 10 40  1  0  0  0  0
 10 41  1  0  0  0  0
 11 17  1  0  0  0  0
 11 42  1  0  0  0  0
 11 43  1  0  0  0  0
 12 13  1  0  0  0  0
 12 44  1  0  0  0  0
 12 45  1  0  0  0  0
 13 46  1  0  0  0  0
 13 47  1  0  0  0  0
 14 20  1  0  0  0  0
 14 24  1  0  0  0  0
 14 25  1  0  0  0  0
 15 48  1  0  0  0  0
 15 49  1  0  0  0  0
 15 50  1  0  0  0  0
 16 23  1  0  0  0  0
 16 26  1  6  0  0  0
 16 51  1  0  0  0  0
 17 52  1  0  0  0  0
 18 53  1  0  0  0  0
 18 54  1  0  0  0  0
 18 55  1  0  0  0  0
 19 21  1  0  0  0  0
 19 56  1  0  0  0  0
 19 57  1  0  0  0  0
 20 21  1  0  0  0  0
 20 58  1  0  0  0  0
 21 59  1  0  0  0  0
 21 60  1  0  0  0  0
 22 61  1  0  0  0  0
 22 62  1  0  0  0  0
 22 63  1  0  0  0  0
 23 27  1  0  0  0  0
 23 64  1  0  0  0  0
 23 65  1  0  0  0  0
 24 66  1  0  0  0  0
 24 67  1  0  0  0  0
 24 68  1  0  0  0  0
 25 69  1  0  0  0  0
 25 70  1  0  0  0  0
 25 71  1  0  0  0  0
 26 72  1  0  0  0  0
 26 73  1  0  0  0  0
 26 74  1  0  0  0  0
 27 28  1  0  0  0  0
 27 29  1  0  0  0  0
 27 75  1  0  0  0  0
 28 30  1  0  0  0  0
 28 31  1  0  0  0  0
 28 32  1  0  0  0  0
 29 77  1  0  0  0  0
 29 78  1  0  0  0  0
 29 79  1  0  0  0  0
 30 80  1  0  0  0  0
 30 81  1  0  0  0  0
 30 82  1  0  0  0  0
 31 83  1  0  0  0  0
 31 84  1  0  0  0  0
 31 85  1  0  0  0  0
 32 33  1  0  0  0  0
 32 34  2  0  0  0  0
 33 86  1  0  0  0  0
 33 87  1  0  0  0  0
 33 88  1  0  0  0  0
 34 89  1  0  0  0  0
 34 90  1  0  0  0  0
M  END
> <PUBCHEM_COMPOUND_CID>
101316920

> <PUBCHEM_COMPOUND_CANONICALIZED>
1

> <PUBCHEM_CACTVS_COMPLEXITY>
847

> <PUBCHEM_CACTVS_HBOND_ACCEPTOR>
1

> <PUBCHEM_CACTVS_HBOND_DONOR>
1

> <PUBCHEM_CACTVS_ROTATABLE_BOND>
5

> <PUBCHEM_CACTVS_SUBSKEYS>
AAADcfB8IAAAAAAAAAAAAAAAAAAAAYAAAAAwYIAAAAAAAEDAAAAAGgAACAAADxSggAICAAAAAgCAAiBCAAAAAAAgAAAACAAAAAgAEAIAAQAAQAAEgAAIAAOAwPAPgAAAAAAAAADAAAYAADAAAQAACAAAAA==

> <PUBCHEM_IUPAC_OPENEYE_NAME>
(3S,5R,8S,10S,13R,14S,17R)-4,4,10,13,14-pentamethyl-17-[(1R)-1,3,4,4,5-pentamethylhex-5-enyl]-2,3,5,6,7,8,12,15,16,17-decahydro-1H-cyclopenta[a]phenanthren-3-ol

> <PUBCHEM_IUPAC_CAS_NAME>
(3S,5R,8S,10S,13R,14S,17R)-4,4,10,13,14-pentamethyl-17-[(2R)-4,5,5,6-tetramethylhept-6-en-2-yl]-2,3,5,6,7,8,12,15,16,17-decahydro-1H-cyclopenta[a]phenanthren-3-ol

> <PUBCHEM_IUPAC_NAME_MARKUP>
(3<I>S</I>,5<I>R</I>,8<I>S</I>,10<I>S</I>,13<I>R</I>,14<I>S</I>,17<I>R</I>)-4,4,10,13,14-pentamethyl-17-[(2<I>R</I>)-4,5,5,6-tetramethylhept-6-en-2-yl]-2,3,5,6,7,8,12,15,16,17-decahydro-1<I>H</I>-cyclopenta[a]phenanthren-3-ol

> <PUBCHEM_IUPAC_NAME>
(3S,5R,8S,10S,13R,14S,17R)-4,4,10,13,14-pentamethyl-17-[(2R)-4,5,5,6-tetramethylhept-6-en-2-yl]-2,3,5,6,7,8,12,15,16,17-decahydro-1H-cyclopenta[a]phenanthren-3-ol

> <PUBCHEM_IUPAC_SYSTEMATIC_NAME>
(3S,5R,8S,10S,13R,14S,17R)-4,4,10,13,14-pentamethyl-17-[(2R)-4,5,5,6-tetramethylhept-6-en-2-yl]-2,3,5,6,7,8,12,15,16,17-decahydro-1H-cyclopenta[a]phenanthren-3-ol

> <PUBCHEM_IUPAC_TRADITIONAL_NAME>
(3S,5R,8S,10S,13R,14S,17R)-4,4,10,13,14-pentamethyl-17-[(1R)-1,3,4,4,5-pentamethylhex-5-enyl]-2,3,5,6,7,8,12,15,16,17-decahydro-1H-cyclopenta[a]phenanthren-3-ol

> <PUBCHEM_IUPAC_INCHI>
InChI=1S/C33H56O/c1-21(2)29(5,6)23(4)20-22(3)24-14-18-33(11)26-12-13-27-30(7,8)28(34)16-17-31(27,9)25(26)15-19-32(24,33)10/h15,22-24,26-28,34H,1,12-14,16-20H2,2-11H3/t22-,23?,24-,26-,27+,28+,31-,32-,33+/m1/s1

> <PUBCHEM_IUPAC_INCHIKEY>
CGINCLVPUDBIKV-ODYVEBTQSA-N

> <PUBCHEM_XLOGP3_AA>
10.6

> <PUBCHEM_EXACT_MASS>
468.433116406

> <PUBCHEM_MOLECULAR_FORMULA>
C33H56O

> <PUBCHEM_MOLECULAR_WEIGHT>
468.8

> <PUBCHEM_SMILES>
C[C@H](CC(C)C(C)(C)C(=C)C)[C@H]1CC[C@@]2([C@@]1(CC=C3[C@H]2CC[C@@H]4[C@@]3(CC[C@@H](C4(C)C)O)C)C)C

> <PUBCHEM_CONNECTIVITY_SMILES>
CC(CC(C)C(C)(C)C(=C)C)C1CCC2(C1(CC=C3C2CCC4C3(CCC(C4(C)C)O)C)C)C

> <PUBCHEM_CACTVS_TPSA>
20.2

> <PUBCHEM_MONOISOTOPIC_WEIGHT>
468.433116406

> <PUBCHEM_TOTAL_CHARGE>
0

> <PUBCHEM_HEAVY_ATOM_COUNT>
34

> <PUBCHEM_ATOM_DEF_STEREO_COUNT>
8

> <PUBCHEM_ATOM_UDEF_STEREO_COUNT>
1

> <PUBCHEM_BOND_DEF_STEREO_COUNT>
0

> <PUBCHEM_BOND_UDEF_STEREO_COUNT>
0

> <PUBCHEM_ISOTOPIC_ATOM_COUNT>
0

> <PUBCHEM_COMPONENT_COUNT>
1

> <PUBCHEM_CACTVS_TAUTO_COUNT>
-1

> <PUBCHEM_COORDINATE_TYPE>
1
5
255

> <PUBCHEM_BONDANNOTATIONS>
20  1  5
16  26  6
2  15  6
27  29  3
3  18  5
4  35  5
5  36  6
6  22  5
9  39  6

$$$$
