5280450
  -OEChem-01202622282D

 52 51  0     0  0  0  0  0  0999 V2000
    2.5369   -2.2500    0.0000 O   0  0  0  0  0  0  0  0  0  0  0  0
    3.4030   -3.7500    0.0000 O   0  0  0  0  0  0  0  0  0  0  0  0
    6.8671   -2.7500    0.0000 C   0  0  0  0  0  0  0  0  0  0  0  0
    7.7331   -2.2500    0.0000 C   0  0  0  0  0  0  0  0  0  0  0  0
    6.0010   -2.2500    0.0000 C   0  0  0  0  0  0  0  0  0  0  0  0
    8.5991   -2.7500    0.0000 C   0  0  0  0  0  0  0  0  0  0  0  0
    5.1350   -2.7500    0.0000 C   0  0  0  0  0  0  0  0  0  0  0  0
    9.4651   -2.2500    0.0000 C   0  0  0  0  0  0  0  0  0  0  0  0
    4.2690   -2.2500    0.0000 C   0  0  0  0  0  0  0  0  0  0  0  0
   11.1972    1.7500    0.0000 C   0  0  0  0  0  0  0  0  0  0  0  0
   10.3312    2.2500    0.0000 C   0  0  0  0  0  0  0  0  0  0  0  0
   10.3312   -2.7500    0.0000 C   0  0  0  0  0  0  0  0  0  0  0  0
   11.1972    0.7500    0.0000 C   0  0  0  0  0  0  0  0  0  0  0  0
   10.3312    3.2500    0.0000 C   0  0  0  0  0  0  0  0  0  0  0  0
   11.1972   -2.2500    0.0000 C   0  0  0  0  0  0  0  0  0  0  0  0
   11.1972   -1.2500    0.0000 C   0  0  0  0  0  0  0  0  0  0  0  0
   12.0632    0.2500    0.0000 C   0  0  0  0  0  0  0  0  0  0  0  0
    3.4030   -2.7500    0.0000 C   0  0  0  0  0  0  0  0  0  0  0  0
   12.0632   -0.7500    0.0000 C   0  0  0  0  0  0  0  0  0  0  0  0
    9.4651    3.7500    0.0000 C   0  0  0  0  0  0  0  0  0  0  0  0
    6.4685   -3.2250    0.0000 H   0  0  0  0  0  0  0  0  0  0  0  0
    7.2656   -3.2250    0.0000 H   0  0  0  0  0  0  0  0  0  0  0  0
    8.1316   -1.7751    0.0000 H   0  0  0  0  0  0  0  0  0  0  0  0
    7.3346   -1.7751    0.0000 H   0  0  0  0  0  0  0  0  0  0  0  0
    6.3996   -1.7751    0.0000 H   0  0  0  0  0  0  0  0  0  0  0  0
    5.6025   -1.7751    0.0000 H   0  0  0  0  0  0  0  0  0  0  0  0
    8.2006   -3.2250    0.0000 H   0  0  0  0  0  0  0  0  0  0  0  0
    8.9976   -3.2250    0.0000 H   0  0  0  0  0  0  0  0  0  0  0  0
    4.7365   -3.2250    0.0000 H   0  0  0  0  0  0  0  0  0  0  0  0
    5.5335   -3.2250    0.0000 H   0  0  0  0  0  0  0  0  0  0  0  0
    9.8637   -1.7751    0.0000 H   0  0  0  0  0  0  0  0  0  0  0  0
    9.0666   -1.7751    0.0000 H   0  0  0  0  0  0  0  0  0  0  0  0
    4.6675   -1.7751    0.0000 H   0  0  0  0  0  0  0  0  0  0  0  0
    3.8705   -1.7751    0.0000 H   0  0  0  0  0  0  0  0  0  0  0  0
   11.8078    1.6423    0.0000 H   0  0  0  0  0  0  0  0  0  0  0  0
   11.4092    2.3326    0.0000 H   0  0  0  0  0  0  0  0  0  0  0  0
    9.7206    2.3577    0.0000 H   0  0  0  0  0  0  0  0  0  0  0  0
   10.1191    1.6674    0.0000 H   0  0  0  0  0  0  0  0  0  0  0  0
   10.3312   -3.3700    0.0000 H   0  0  0  0  0  0  0  0  0  0  0  0
   10.5866    0.8577    0.0000 H   0  0  0  0  0  0  0  0  0  0  0  0
   10.9851    0.1674    0.0000 H   0  0  0  0  0  0  0  0  0  0  0  0
   10.9417    3.1423    0.0000 H   0  0  0  0  0  0  0  0  0  0  0  0
   10.5432    3.8326    0.0000 H   0  0  0  0  0  0  0  0  0  0  0  0
   11.7341   -2.5600    0.0000 H   0  0  0  0  0  0  0  0  0  0  0  0
   10.9851   -0.6674    0.0000 H   0  0  0  0  0  0  0  0  0  0  0  0
   10.5866   -1.3577    0.0000 H   0  0  0  0  0  0  0  0  0  0  0  0
   12.6002    0.5600    0.0000 H   0  0  0  0  0  0  0  0  0  0  0  0
   12.6002   -1.0600    0.0000 H   0  0  0  0  0  0  0  0  0  0  0  0
    9.7751    4.2869    0.0000 H   0  0  0  0  0  0  0  0  0  0  0  0
    8.9282    4.0600    0.0000 H   0  0  0  0  0  0  0  0  0  0  0  0
    9.1551    3.2131    0.0000 H   0  0  0  0  0  0  0  0  0  0  0  0
    2.0000   -2.5600    0.0000 H   0  0  0  0  0  0  0  0  0  0  0  0
  1 18  1  0  0  0  0
  1 52  1  0  0  0  0
  2 18  2  0  0  0  0
  3  4  1  0  0  0  0
  3  5  1  0  0  0  0
  3 21  1  0  0  0  0
  3 22  1  0  0  0  0
  4  6  1  0  0  0  0
  4 23  1  0  0  0  0
  4 24  1  0  0  0  0
  5  7  1  0  0  0  0
  5 25  1  0  0  0  0
  5 26  1  0  0  0  0
  6  8  1  0  0  0  0
  6 27  1  0  0  0  0
  6 28  1  0  0  0  0
  7  9  1  0  0  0  0
  7 29  1  0  0  0  0
  7 30  1  0  0  0  0
  8 12  1  0  0  0  0
  8 31  1  0  0  0  0
  8 32  1  0  0  0  0
  9 18  1  0  0  0  0
  9 33  1  0  0  0  0
  9 34  1  0  0  0  0
 10 11  1  0  0  0  0
 10 13  1  0  0  0  0
 10 35  1  0  0  0  0
 10 36  1  0  0  0  0
 11 14  1  0  0  0  0
 11 37  1  0  0  0  0
 11 38  1  0  0  0  0
 12 15  2  0  0  0  0
 12 39  1  0  0  0  0
 13 17  1  0  0  0  0
 13 40  1  0  0  0  0
 13 41  1  0  0  0  0
 14 20  1  0  0  0  0
 14 42  1  0  0  0  0
 14 43  1  0  0  0  0
 15 16  1  0  0  0  0
 15 44  1  0  0  0  0
 16 19  1  0  0  0  0
 16 45  1  0  0  0  0
 16 46  1  0  0  0  0
 17 19  2  0  0  0  0
 17 47  1  0  0  0  0
 19 48  1  0  0  0  0
 20 49  1  0  0  0  0
 20 50  1  0  0  0  0
 20 51  1  0  0  0  0
M  END
> <PUBCHEM_COMPOUND_CID>
5280450

> <PUBCHEM_COMPOUND_CANONICALIZED>
1

> <PUBCHEM_CACTVS_COMPLEXITY>
267

> <PUBCHEM_CACTVS_HBOND_ACCEPTOR>
2

> <PUBCHEM_CACTVS_HBOND_DONOR>
1

> <PUBCHEM_CACTVS_ROTATABLE_BOND>
14

> <PUBCHEM_CACTVS_SUBSKEYS>
AAADcfB4MAAAAAAAAAAAAAAAAAAAAAAAAAAAAAAAAAAAAAAAAAAAGgAACAAACACAgAACCAAAAgCIACDSCAAAAAAgAAAICAEAAAgAABIAAQAAQAAEgAAIAAOIyKCAAAAAAAAAAAAAAAAAAAAAAAAAAAAAAA==

> <PUBCHEM_IUPAC_OPENEYE_NAME>
(9Z,12Z)-octadeca-9,12-dienoic acid

> <PUBCHEM_IUPAC_CAS_NAME>
(9Z,12Z)-octadeca-9,12-dienoic acid

> <PUBCHEM_IUPAC_NAME_MARKUP>
(9<I>Z</I>,12<I>Z</I>)-octadeca-9,12-dienoic acid

> <PUBCHEM_IUPAC_NAME>
(9Z,12Z)-octadeca-9,12-dienoic acid

> <PUBCHEM_IUPAC_SYSTEMATIC_NAME>
(9Z,12Z)-octadeca-9,12-dienoic acid

> <PUBCHEM_IUPAC_TRADITIONAL_NAME>
(9Z,12Z)-octadeca-9,12-dienoic acid

> <PUBCHEM_IUPAC_INCHI>
InChI=1S/C18H32O2/c1-2-3-4-5-6-7-8-9-10-11-12-13-14-15-16-17-18(19)20/h6-7,9-10H,2-5,8,11-17H2,1H3,(H,19,20)/b7-6-,10-9-

> <PUBCHEM_IUPAC_INCHIKEY>
OYHQOLUKZRVURQ-HZJYTTRNSA-N

> <PUBCHEM_XLOGP3>
6.8

> <PUBCHEM_EXACT_MASS>
280.240230259

> <PUBCHEM_MOLECULAR_FORMULA>
C18H32O2

> <PUBCHEM_MOLECULAR_WEIGHT>
280.4

> <PUBCHEM_SMILES>
CCCCC/C=C\C/C=C\CCCCCCCC(=O)O

> <PUBCHEM_CONNECTIVITY_SMILES>
CCCCCC=CCC=CCCCCCCCC(=O)O

> <PUBCHEM_CACTVS_TPSA>
37.3

> <PUBCHEM_MONOISOTOPIC_WEIGHT>
280.240230259

> <PUBCHEM_TOTAL_CHARGE>
0

> <PUBCHEM_HEAVY_ATOM_COUNT>
20

> <PUBCHEM_ATOM_DEF_STEREO_COUNT>
0

> <PUBCHEM_ATOM_UDEF_STEREO_COUNT>
0

> <PUBCHEM_BOND_DEF_STEREO_COUNT>
2

> <PUBCHEM_BOND_UDEF_STEREO_COUNT>
0

> <PUBCHEM_ISOTOPIC_ATOM_COUNT>
0

> <PUBCHEM_COMPONENT_COUNT>
1

> <PUBCHEM_CACTVS_TAUTO_COUNT>
-1

> <PUBCHEM_COORDINATE_TYPE>
1
5
255

$$$$
