375152
  -OEChem-01202622232D

 30 32  0     0  0  0  0  0  0999 V2000
    6.6498    1.7493    0.0000 O   0  0  0  0  0  0  0  0  0  0  0  0
    8.3780   -1.5062    0.0000 O   0  0  0  0  0  0  0  0  0  0  0  0
    4.5274    1.1503    0.0000 N   0  0  0  0  0  0  0  0  0  0  0  0
    5.0274   -0.3886    0.0000 C   0  0  0  0  0  0  0  0  0  0  0  0
    5.3364    0.5625    0.0000 C   0  0  0  0  0  0  0  0  0  0  0  0
    4.0274   -0.3886    0.0000 C   0  0  0  0  0  0  0  0  0  0  0  0
    3.7183    0.5625    0.0000 C   0  0  0  0  0  0  0  0  0  0  0  0
    5.7123   -1.1733    0.0000 C   0  0  0  0  0  0  0  0  0  0  0  0
    6.3518    0.7947    0.0000 C   0  0  0  0  0  0  0  0  0  0  0  0
    6.7328   -0.9646    0.0000 C   0  0  0  0  0  0  0  0  0  0  0  0
    7.0547    0.0261    0.0000 C   0  0  0  0  0  0  0  0  0  0  0  0
    3.3424   -1.1733    0.0000 C   0  0  0  0  0  0  0  0  0  0  0  0
    2.7029    0.7947    0.0000 C   0  0  0  0  0  0  0  0  0  0  0  0
    7.3991   -1.7103    0.0000 C   0  0  0  0  0  0  0  0  0  0  0  0
    2.3219   -0.9646    0.0000 C   0  0  0  0  0  0  0  0  0  0  0  0
    2.0000    0.0261    0.0000 C   0  0  0  0  0  0  0  0  0  0  0  0
    7.6255    1.9685    0.0000 C   0  0  0  0  0  0  0  0  0  0  0  0
    4.5274    1.7703    0.0000 H   0  0  0  0  0  0  0  0  0  0  0  0
    5.5139   -1.7607    0.0000 H   0  0  0  0  0  0  0  0  0  0  0  0
    7.6607    0.1573    0.0000 H   0  0  0  0  0  0  0  0  0  0  0  0
    3.5408   -1.7607    0.0000 H   0  0  0  0  0  0  0  0  0  0  0  0
    2.5182    1.3866    0.0000 H   0  0  0  0  0  0  0  0  0  0  0  0
    6.8720   -2.0368    0.0000 H   0  0  0  0  0  0  0  0  0  0  0  0
    7.6291   -2.2861    0.0000 H   0  0  0  0  0  0  0  0  0  0  0  0
    1.9088   -1.4269    0.0000 H   0  0  0  0  0  0  0  0  0  0  0  0
    1.3940    0.1573    0.0000 H   0  0  0  0  0  0  0  0  0  0  0  0
    7.7614    1.3636    0.0000 H   0  0  0  0  0  0  0  0  0  0  0  0
    8.2304    2.1044    0.0000 H   0  0  0  0  0  0  0  0  0  0  0  0
    7.4896    2.5734    0.0000 H   0  0  0  0  0  0  0  0  0  0  0  0
    8.7911   -1.9685    0.0000 H   0  0  0  0  0  0  0  0  0  0  0  0
  1  9  1  0  0  0  0
  1 17  1  0  0  0  0
  2 14  1  0  0  0  0
  2 30  1  0  0  0  0
  3  5  1  0  0  0  0
  3  7  1  0  0  0  0
  3 18  1  0  0  0  0
  4  5  2  0  0  0  0
  4  6  1  0  0  0  0
  4  8  1  0  0  0  0
  5  9  1  0  0  0  0
  6  7  1  0  0  0  0
  6 12  2  0  0  0  0
  7 13  2  0  0  0  0
  8 10  2  0  0  0  0
  8 19  1  0  0  0  0
  9 11  2  0  0  0  0
 10 11  1  0  0  0  0
 10 14  1  0  0  0  0
 11 20  1  0  0  0  0
 12 15  1  0  0  0  0
 12 21  1  0  0  0  0
 13 16  1  0  0  0  0
 13 22  1  0  0  0  0
 14 23  1  0  0  0  0
 14 24  1  0  0  0  0
 15 16  2  0  0  0  0
 15 25  1  0  0  0  0
 16 26  1  0  0  0  0
 17 27  1  0  0  0  0
 17 28  1  0  0  0  0
 17 29  1  0  0  0  0
M  END
> <PUBCHEM_COMPOUND_CID>
375152

> <PUBCHEM_COMPOUND_CANONICALIZED>
1

> <PUBCHEM_CACTVS_COMPLEXITY>
271

> <PUBCHEM_CACTVS_HBOND_ACCEPTOR>
2

> <PUBCHEM_CACTVS_HBOND_DONOR>
2

> <PUBCHEM_CACTVS_ROTATABLE_BOND>
2

> <PUBCHEM_CACTVS_SUBSKEYS>
AAADccByMAAAAAAAAAAAAAAAAAAAAWAAAAAwYAAAAAAAAFgB/AAAHgAQCAAADAyhngIyxvLJlgCgAyRiRASCiCAhYiAImSA3bJgONuLEsZuFcChk0BHY+AfQ0PMOiAADAAACEAAQAAYAAAQgAAAAAAAAAA==

> <PUBCHEM_IUPAC_OPENEYE_NAME>
(1-methoxy-9H-carbazol-3-yl)methanol

> <PUBCHEM_IUPAC_CAS_NAME>
(1-methoxy-9H-carbazol-3-yl)methanol

> <PUBCHEM_IUPAC_NAME_MARKUP>
(1-methoxy-9<I>H</I>-carbazol-3-yl)methanol

> <PUBCHEM_IUPAC_NAME>
(1-methoxy-9H-carbazol-3-yl)methanol

> <PUBCHEM_IUPAC_SYSTEMATIC_NAME>
(1-methoxy-9H-carbazol-3-yl)methanol

> <PUBCHEM_IUPAC_TRADITIONAL_NAME>
(1-methoxy-9H-carbazol-3-yl)methanol

> <PUBCHEM_IUPAC_INCHI>
InChI=1S/C14H13NO2/c1-17-13-7-9(8-16)6-11-10-4-2-3-5-12(10)15-14(11)13/h2-7,15-16H,8H2,1H3

> <PUBCHEM_IUPAC_INCHIKEY>
KNKVHLASDDREQS-UHFFFAOYSA-N

> <PUBCHEM_XLOGP3_AA>
2.5

> <PUBCHEM_EXACT_MASS>
227.094628657

> <PUBCHEM_MOLECULAR_FORMULA>
C14H13NO2

> <PUBCHEM_MOLECULAR_WEIGHT>
227.26

> <PUBCHEM_SMILES>
COC1=CC(=CC2=C1NC3=CC=CC=C32)CO

> <PUBCHEM_CONNECTIVITY_SMILES>
COC1=CC(=CC2=C1NC3=CC=CC=C32)CO

> <PUBCHEM_CACTVS_TPSA>
45.3

> <PUBCHEM_MONOISOTOPIC_WEIGHT>
227.094628657

> <PUBCHEM_TOTAL_CHARGE>
0

> <PUBCHEM_HEAVY_ATOM_COUNT>
17

> <PUBCHEM_ATOM_DEF_STEREO_COUNT>
0

> <PUBCHEM_ATOM_UDEF_STEREO_COUNT>
0

> <PUBCHEM_BOND_DEF_STEREO_COUNT>
0

> <PUBCHEM_BOND_UDEF_STEREO_COUNT>
0

> <PUBCHEM_ISOTOPIC_ATOM_COUNT>
0

> <PUBCHEM_COMPONENT_COUNT>
1

> <PUBCHEM_CACTVS_TAUTO_COUNT>
-1

> <PUBCHEM_COORDINATE_TYPE>
1
5
255

> <PUBCHEM_BONDANNOTATIONS>
10  11  8
12  15  8
13  16  8
15  16  8
3  5  8
3  7  8
4  5  8
4  6  8
4  8  8
5  9  8
6  12  8
6  7  8
7  13  8
8  10  8
9  11  8

$$$$
