129633560
  -OEChem-01202622402D

 54 55  0     1  0  0  0  0  0999 V2000
    5.6350   -0.7785    0.0000 O   0  0  0  0  0  0  0  0  0  0  0  0
    4.7690    1.4535    0.0000 O   0  0  0  0  0  0  0  0  0  0  0  0
    6.7690   -0.2785    0.0000 O   0  0  0  0  0  0  0  0  0  0  0  0
    3.9030    1.2215    0.0000 O   0  0  0  0  0  0  0  0  0  0  0  0
    6.2690    2.3195    0.0000 O   0  0  0  0  0  0  0  0  0  0  0  0
    3.4030   -0.6446    0.0000 O   0  0  0  0  0  0  0  0  0  0  0  0
    8.2690    0.5875    0.0000 O   0  0  0  0  0  0  0  0  0  0  0  0
    2.4030    1.0875    0.0000 O   0  0  0  0  0  0  0  0  0  0  0  0
    2.5369   -4.1446    0.0000 O   0  0  0  0  0  0  0  0  0  0  0  0
    6.0010   -4.1446    0.0000 O   0  0  0  0  0  0  0  0  0  0  0  0
    4.2690   -5.1446    0.0000 O   0  0  0  0  0  0  0  0  0  0  0  0
   10.7690    3.1856    0.0000 O   0  0  0  0  0  0  0  0  0  0  0  0
    7.7690    4.9176    0.0000 O   0  0  0  0  0  0  0  0  0  0  0  0
    9.7690    4.9176    0.0000 O   0  0  0  0  0  0  0  0  0  0  0  0
    4.7690   -0.2785    0.0000 C   0  0  1  0  0  0  0  0  0  0  0  0
    5.2690    0.5875    0.0000 C   0  0  1  0  0  0  0  0  0  0  0  0
    6.2690    0.5875    0.0000 C   0  0  1  0  0  0  0  0  0  0  0  0
    3.9030    0.2215    0.0000 C   0  0  2  0  0  0  0  0  0  0  0  0
    6.7690    1.4535    0.0000 C   0  0  3  0  0  0  0  0  0  0  0  0
    4.2690   -1.1446    0.0000 C   0  0  0  0  0  0  0  0  0  0  0  0
    4.2690   -2.1446    0.0000 C   0  0  0  0  0  0  0  0  0  0  0  0
    7.7690    1.4535    0.0000 C   0  0  0  0  0  0  0  0  0  0  0  0
    2.9030    0.2216    0.0000 C   0  0  0  0  0  0  0  0  0  0  0  0
    8.2690    2.3195    0.0000 C   0  0  0  0  0  0  0  0  0  0  0  0
    5.1350   -2.6446    0.0000 C   0  0  0  0  0  0  0  0  0  0  0  0
    3.4030   -2.6446    0.0000 C   0  0  0  0  0  0  0  0  0  0  0  0
    3.4030   -3.6446    0.0000 C   0  0  0  0  0  0  0  0  0  0  0  0
    5.1350   -3.6446    0.0000 C   0  0  0  0  0  0  0  0  0  0  0  0
    7.7690    3.1856    0.0000 C   0  0  0  0  0  0  0  0  0  0  0  0
    9.2690    2.3195    0.0000 C   0  0  0  0  0  0  0  0  0  0  0  0
    4.2690   -4.1446    0.0000 C   0  0  0  0  0  0  0  0  0  0  0  0
    9.7690    3.1856    0.0000 C   0  0  0  0  0  0  0  0  0  0  0  0
    8.2690    4.0516    0.0000 C   0  0  0  0  0  0  0  0  0  0  0  0
    9.2690    4.0516    0.0000 C   0  0  0  0  0  0  0  0  0  0  0  0
    4.6490    0.5875    0.0000 H   0  0  0  0  0  0  0  0  0  0  0  0
    6.8890    0.5875    0.0000 H   0  0  0  0  0  0  0  0  0  0  0  0
    4.4399    0.5315    0.0000 H   0  0  0  0  0  0  0  0  0  0  0  0
    7.0790    1.9905    0.0000 H   0  0  0  0  0  0  0  0  0  0  0  0
    6.1720   -0.4685    0.0000 H   0  0  0  0  0  0  0  0  0  0  0  0
    5.0790    1.9905    0.0000 H   0  0  0  0  0  0  0  0  0  0  0  0
    7.3890   -0.2785    0.0000 H   0  0  0  0  0  0  0  0  0  0  0  0
    2.5929   -0.3154    0.0000 H   0  0  0  0  0  0  0  0  0  0  0  0
    3.3660    1.5315    0.0000 H   0  0  0  0  0  0  0  0  0  0  0  0
    6.5790    2.8565    0.0000 H   0  0  0  0  0  0  0  0  0  0  0  0
    5.6720   -2.3346    0.0000 H   0  0  0  0  0  0  0  0  0  0  0  0
    2.8660   -2.3346    0.0000 H   0  0  0  0  0  0  0  0  0  0  0  0
    7.1490    3.1856    0.0000 H   0  0  0  0  0  0  0  0  0  0  0  0
    9.5790    1.7826    0.0000 H   0  0  0  0  0  0  0  0  0  0  0  0
    2.0000   -3.8346    0.0000 H   0  0  0  0  0  0  0  0  0  0  0  0
    6.5380   -3.8346    0.0000 H   0  0  0  0  0  0  0  0  0  0  0  0
    3.7321   -5.4546    0.0000 H   0  0  0  0  0  0  0  0  0  0  0  0
   11.0790    2.6486    0.0000 H   0  0  0  0  0  0  0  0  0  0  0  0
    8.0790    5.4546    0.0000 H   0  0  0  0  0  0  0  0  0  0  0  0
   10.3890    4.9176    0.0000 H   0  0  0  0  0  0  0  0  0  0  0  0
 15  1  1  6  0  0  0
  1 39  1  0  0  0  0
 16  2  1  6  0  0  0
  2 40  1  0  0  0  0
 17  3  1  1  0  0  0
  3 41  1  0  0  0  0
 18  4  1  6  0  0  0
  4 43  1  0  0  0  0
  5 19  1  0  0  0  0
  5 44  1  0  0  0  0
  6 20  2  0  0  0  0
  7 22  2  0  0  0  0
  8 23  2  0  0  0  0
  9 27  1  0  0  0  0
  9 49  1  0  0  0  0
 10 28  1  0  0  0  0
 10 50  1  0  0  0  0
 11 31  1  0  0  0  0
 11 51  1  0  0  0  0
 12 32  1  0  0  0  0
 12 52  1  0  0  0  0
 13 33  1  0  0  0  0
 13 53  1  0  0  0  0
 14 34  1  0  0  0  0
 14 54  1  0  0  0  0
 15 16  1  0  0  0  0
 15 18  1  0  0  0  0
 15 20  1  0  0  0  0
 16 17  1  0  0  0  0
 16 35  1  0  0  0  0
 17 19  1  0  0  0  0
 17 36  1  0  0  0  0
 18 23  1  0  0  0  0
 18 37  1  0  0  0  0
 19 22  1  0  0  0  0
 19 38  1  0  0  0  0
 20 21  1  0  0  0  0
 21 25  2  0  0  0  0
 21 26  1  0  0  0  0
 22 24  1  0  0  0  0
 23 42  1  0  0  0  0
 24 29  2  0  0  0  0
 24 30  1  0  0  0  0
 25 28  1  0  0  0  0
 25 45  1  0  0  0  0
 26 27  2  0  0  0  0
 26 46  1  0  0  0  0
 27 31  1  0  0  0  0
 28 31  2  0  0  0  0
 29 33  1  0  0  0  0
 29 47  1  0  0  0  0
 30 32  2  0  0  0  0
 30 48  1  0  0  0  0
 32 34  1  0  0  0  0
 33 34  2  0  0  0  0
M  END
> <PUBCHEM_COMPOUND_CID>
129633560

> <PUBCHEM_COMPOUND_CANONICALIZED>
1

> <PUBCHEM_CACTVS_COMPLEXITY>
723

> <PUBCHEM_CACTVS_HBOND_ACCEPTOR>
14

> <PUBCHEM_CACTVS_HBOND_DONOR>
11

> <PUBCHEM_CACTVS_ROTATABLE_BOND>
9

> <PUBCHEM_CACTVS_SUBSKEYS>
AAADceB4PAAAAAAAAAAAAAAAAAAAAAAAAAAwYAAAAAAAAAABQAAAGgAACAAADFSgmAIwBoAAAgCIAqhSgAICAAAkIAAAiAFGiMgJNzaCFRKAcQEl4BUJmYfL7PTOIAABCAAAQABAAAIQAACAAAAAAAAAAA==

> <PUBCHEM_IUPAC_OPENEYE_NAME>
(2R,3S,4R,5S)-2,3,4,5,6-pentahydroxy-7-oxo-3-(3,4,5-trihydroxybenzoyl)-7-(3,4,5-trihydroxyphenyl)heptanal

> <PUBCHEM_IUPAC_CAS_NAME>
(2R,3S,4R,5S)-2,3,4,5,6-pentahydroxy-7-oxo-3-[oxo-(3,4,5-trihydroxyphenyl)methyl]-7-(3,4,5-trihydroxyphenyl)heptanal

> <PUBCHEM_IUPAC_NAME_MARKUP>
(2<I>R</I>,3<I>S</I>,4<I>R</I>,5<I>S</I>)-2,3,4,5,6-pentahydroxy-7-oxo-3-(3,4,5-trihydroxybenzoyl)-7-(3,4,5-trihydroxyphenyl)heptanal

> <PUBCHEM_IUPAC_NAME>
(2R,3S,4R,5S)-2,3,4,5,6-pentahydroxy-7-oxo-3-(3,4,5-trihydroxybenzoyl)-7-(3,4,5-trihydroxyphenyl)heptanal

> <PUBCHEM_IUPAC_SYSTEMATIC_NAME>
(2R,3S,4R,5S)-2,3,4,5,6-pentakis(oxidanyl)-7-oxidanylidene-7-[3,4,5-tris(oxidanyl)phenyl]-3-[3,4,5-tris(oxidanyl)phenyl]carbonyl-heptanal

> <PUBCHEM_IUPAC_TRADITIONAL_NAME>
(2R,3S,4R,5S)-3-galloyl-2,3,4,5,6-pentahydroxy-7-keto-7-(3,4,5-trihydroxyphenyl)enanthaldehyde

> <PUBCHEM_IUPAC_INCHI>
InChI=1S/C20H20O14/c21-5-12(26)20(34,18(32)7-3-10(24)15(29)11(25)4-7)19(33)17(31)16(30)13(27)6-1-8(22)14(28)9(23)2-6/h1-5,12,16-17,19,22-26,28-31,33-34H/t12-,16?,17+,19+,20-/m0/s1

> <PUBCHEM_IUPAC_INCHIKEY>
CIJSASFKBICKKN-LGYOKWJYSA-N

> <PUBCHEM_XLOGP3_AA>
-2.9

> <PUBCHEM_EXACT_MASS>
484.08530531

> <PUBCHEM_MOLECULAR_FORMULA>
C20H20O14

> <PUBCHEM_MOLECULAR_WEIGHT>
484.4

> <PUBCHEM_SMILES>
C1=C(C=C(C(=C1O)O)O)C(=O)C([C@H]([C@H]([C@]([C@H](C=O)O)(C(=O)C2=CC(=C(C(=C2)O)O)O)O)O)O)O

> <PUBCHEM_CONNECTIVITY_SMILES>
C1=C(C=C(C(=C1O)O)O)C(=O)C(C(C(C(C(C=O)O)(C(=O)C2=CC(=C(C(=C2)O)O)O)O)O)O)O

> <PUBCHEM_CACTVS_TPSA>
274

> <PUBCHEM_MONOISOTOPIC_WEIGHT>
484.08530531

> <PUBCHEM_TOTAL_CHARGE>
0

> <PUBCHEM_HEAVY_ATOM_COUNT>
34

> <PUBCHEM_ATOM_DEF_STEREO_COUNT>
4

> <PUBCHEM_ATOM_UDEF_STEREO_COUNT>
1

> <PUBCHEM_BOND_DEF_STEREO_COUNT>
0

> <PUBCHEM_BOND_UDEF_STEREO_COUNT>
0

> <PUBCHEM_ISOTOPIC_ATOM_COUNT>
0

> <PUBCHEM_COMPONENT_COUNT>
1

> <PUBCHEM_CACTVS_TAUTO_COUNT>
-1

> <PUBCHEM_COORDINATE_TYPE>
1
5
255

> <PUBCHEM_BONDANNOTATIONS>
15  1  6
16  2  6
21  25  8
21  26  8
24  29  8
24  30  8
25  28  8
26  27  8
27  31  8
28  31  8
29  33  8
17  3  5
30  32  8
32  34  8
33  34  8
18  4  6
19  5  3

$$$$
