3085090
  -OEChem-01202622282D

 85 91  0     1  0  0  0  0  0999 V2000
   10.1592   -1.3287    0.0000 O   0  0  0  0  0  0  0  0  0  0  0  0
   12.1767   -0.9930    0.0000 O   0  0  0  0  0  0  0  0  0  0  0  0
    8.6069    0.4368    0.0000 O   0  0  0  0  0  0  0  0  0  0  0  0
   10.4577   -0.8896    0.0000 O   0  0  0  0  0  0  0  0  0  0  0  0
    4.8390    1.4429    0.0000 O   0  0  0  0  0  0  0  0  0  0  0  0
    2.9339    0.6989    0.0000 O   0  0  0  0  0  0  0  0  0  0  0  0
    6.8228   -3.6117    0.0000 N   0  0  3  0  0  0  0  0  0  0  0  0
   10.3383    3.2701    0.0000 N   0  0  3  0  0  0  0  0  0  0  0  0
    6.8309   -2.5701    0.0000 C   0  0  1  0  0  0  0  0  0  0  0  0
    9.8383    2.4020    0.0000 C   0  0  1  0  0  0  0  0  0  0  0  0
    7.7409   -2.0632    0.0000 C   0  0  0  0  0  0  0  0  0  0  0  0
    8.6069   -2.5632    0.0000 C   0  0  0  0  0  0  0  0  0  0  0  0
    7.7249   -4.1325    0.0000 C   0  0  0  0  0  0  0  0  0  0  0  0
    8.6230   -3.6047    0.0000 C   0  0  0  0  0  0  0  0  0  0  0  0
   10.3961    1.5657    0.0000 C   0  0  0  0  0  0  0  0  0  0  0  0
   11.3400    3.2834    0.0000 C   0  0  0  0  0  0  0  0  0  0  0  0
    5.9215   -2.1417    0.0000 C   0  0  0  0  0  0  0  0  0  0  0  0
   11.3953    1.5431    0.0000 C   0  0  0  0  0  0  0  0  0  0  0  0
   11.8629    2.4289    0.0000 C   0  0  0  0  0  0  0  0  0  0  0  0
    9.0367    3.0086    0.0000 C   0  0  0  0  0  0  0  0  0  0  0  0
    9.4729   -2.0632    0.0000 C   0  0  0  0  0  0  0  0  0  0  0  0
   10.6479    0.5925    0.0000 C   0  0  0  0  0  0  0  0  0  0  0  0
    7.7409   -1.0632    0.0000 C   0  0  0  0  0  0  0  0  0  0  0  0
    5.9549   -4.1083    0.0000 C   0  0  0  0  0  0  0  0  0  0  0  0
   10.5660   -0.4094    0.0000 C   0  0  0  0  0  0  0  0  0  0  0  0
   11.9373    0.7034    0.0000 C   0  0  0  0  0  0  0  0  0  0  0  0
    5.2034   -1.4382    0.0000 C   0  0  0  0  0  0  0  0  0  0  0  0
    9.8321    4.1325    0.0000 C   0  0  0  0  0  0  0  0  0  0  0  0
    9.4729   -1.0632    0.0000 C   0  0  0  0  0  0  0  0  0  0  0  0
    8.0802    3.3179    0.0000 C   0  0  0  0  0  0  0  0  0  0  0  0
    8.6069   -0.5632    0.0000 C   0  0  0  0  0  0  0  0  0  0  0  0
   11.5466   -0.2165    0.0000 C   0  0  0  0  0  0  0  0  0  0  0  0
    4.7565   -0.5377    0.0000 C   0  0  0  0  0  0  0  0  0  0  0  0
    4.2210   -1.6218    0.0000 C   0  0  0  0  0  0  0  0  0  0  0  0
    7.0752    3.2957    0.0000 C   0  0  0  0  0  0  0  0  0  0  0  0
    7.2969    2.6949    0.0000 C   0  0  0  0  0  0  0  0  0  0  0  0
    4.6303    0.4596    0.0000 C   0  0  0  0  0  0  0  0  0  0  0  0
    5.3593    2.3031    0.0000 C   0  0  0  0  0  0  0  0  0  0  0  0
    3.5176   -0.9118    0.0000 C   0  0  0  0  0  0  0  0  0  0  0  0
    6.1334    2.9444    0.0000 C   0  0  0  0  0  0  0  0  0  0  0  0
    6.3592    2.3452    0.0000 C   0  0  0  0  0  0  0  0  0  0  0  0
    3.7105    0.0688    0.0000 C   0  0  0  0  0  0  0  0  0  0  0  0
   13.1642   -0.8356    0.0000 C   0  0  0  0  0  0  0  0  0  0  0  0
    7.7409    0.9368    0.0000 C   0  0  0  0  0  0  0  0  0  0  0  0
    2.0000    0.3414    0.0000 C   0  0  0  0  0  0  0  0  0  0  0  0
    6.1113   -3.0226    0.0000 H   0  0  0  0  0  0  0  0  0  0  0  0
    9.2197    1.8191    0.0000 H   0  0  0  0  0  0  0  0  0  0  0  0
    7.3276   -4.6085    0.0000 H   0  0  0  0  0  0  0  0  0  0  0  0
    8.1259   -4.6054    0.0000 H   0  0  0  0  0  0  0  0  0  0  0  0
    8.8410   -4.1851    0.0000 H   0  0  0  0  0  0  0  0  0  0  0  0
    9.2321   -3.4892    0.0000 H   0  0  0  0  0  0  0  0  0  0  0  0
   11.9179    3.5079    0.0000 H   0  0  0  0  0  0  0  0  0  0  0  0
   11.2217    3.8920    0.0000 H   0  0  0  0  0  0  0  0  0  0  0  0
    5.3466   -2.3737    0.0000 H   0  0  0  0  0  0  0  0  0  0  0  0
    6.2755   -1.6327    0.0000 H   0  0  0  0  0  0  0  0  0  0  0  0
   12.3510    2.0467    0.0000 H   0  0  0  0  0  0  0  0  0  0  0  0
   12.3258    2.8414    0.0000 H   0  0  0  0  0  0  0  0  0  0  0  0
    9.5775    3.3118    0.0000 H   0  0  0  0  0  0  0  0  0  0  0  0
    8.7502    2.4587    0.0000 H   0  0  0  0  0  0  0  0  0  0  0  0
   11.2657    0.6456    0.0000 H   0  0  0  0  0  0  0  0  0  0  0  0
    7.2039   -0.7532    0.0000 H   0  0  0  0  0  0  0  0  0  0  0  0
    5.6470   -3.5702    0.0000 H   0  0  0  0  0  0  0  0  0  0  0  0
    5.4168   -4.4163    0.0000 H   0  0  0  0  0  0  0  0  0  0  0  0
    6.2628   -4.6465    0.0000 H   0  0  0  0  0  0  0  0  0  0  0  0
   12.5550    0.7565    0.0000 H   0  0  0  0  0  0  0  0  0  0  0  0
   10.3668    4.4463    0.0000 H   0  0  0  0  0  0  0  0  0  0  0  0
    9.5183    4.6672    0.0000 H   0  0  0  0  0  0  0  0  0  0  0  0
    9.2974    3.8187    0.0000 H   0  0  0  0  0  0  0  0  0  0  0  0
    4.1630   -0.7169    0.0000 H   0  0  0  0  0  0  0  0  0  0  0  0
    4.0362   -2.2137    0.0000 H   0  0  0  0  0  0  0  0  0  0  0  0
    6.9584    3.9046    0.0000 H   0  0  0  0  0  0  0  0  0  0  0  0
    7.6020    2.1552    0.0000 H   0  0  0  0  0  0  0  0  0  0  0  0
    2.9241   -1.0911    0.0000 H   0  0  0  0  0  0  0  0  0  0  0  0
    5.8229    3.4811    0.0000 H   0  0  0  0  0  0  0  0  0  0  0  0
    6.4821    1.7375    0.0000 H   0  0  0  0  0  0  0  0  0  0  0  0
   10.8562   -1.3645    0.0000 H   0  0  0  0  0  0  0  0  0  0  0  0
   13.2618   -1.4479    0.0000 H   0  0  0  0  0  0  0  0  0  0  0  0
   13.7765   -0.7380    0.0000 H   0  0  0  0  0  0  0  0  0  0  0  0
   13.0666   -0.2233    0.0000 H   0  0  0  0  0  0  0  0  0  0  0  0
    8.0509    1.4737    0.0000 H   0  0  0  0  0  0  0  0  0  0  0  0
    7.2039    1.2468    0.0000 H   0  0  0  0  0  0  0  0  0  0  0  0
    7.4309    0.3998    0.0000 H   0  0  0  0  0  0  0  0  0  0  0  0
    1.7784    0.9204    0.0000 H   0  0  0  0  0  0  0  0  0  0  0  0
    1.4210    0.1198    0.0000 H   0  0  0  0  0  0  0  0  0  0  0  0
    2.2216   -0.2376    0.0000 H   0  0  0  0  0  0  0  0  0  0  0  0
  1 21  1  0  0  0  0
  1 25  1  0  0  0  0
  2 32  1  0  0  0  0
  2 43  1  0  0  0  0
  3 31  1  0  0  0  0
  3 44  1  0  0  0  0
  4 29  1  0  0  0  0
  4 76  1  0  0  0  0
  5 37  1  0  0  0  0
  5 38  1  0  0  0  0
  6 42  1  0  0  0  0
  6 45  1  0  0  0  0
  7  9  1  0  0  0  0
  7 13  1  0  0  0  0
  7 24  1  0  0  0  0
  8 10  1  0  0  0  0
  8 16  1  0  0  0  0
  8 28  1  0  0  0  0
  9 11  1  0  0  0  0
  9 17  1  0  0  0  0
  9 46  1  1  0  0  0
 10 15  1  0  0  0  0
 10 20  1  0  0  0  0
 10 47  1  6  0  0  0
 11 12  1  0  0  0  0
 11 23  2  0  0  0  0
 12 14  1  0  0  0  0
 12 21  2  0  0  0  0
 13 14  1  0  0  0  0
 13 48  1  0  0  0  0
 13 49  1  0  0  0  0
 14 50  1  0  0  0  0
 14 51  1  0  0  0  0
 15 18  1  0  0  0  0
 15 22  2  0  0  0  0
 16 19  1  0  0  0  0
 16 52  1  0  0  0  0
 16 53  1  0  0  0  0
 17 27  1  0  0  0  0
 17 54  1  0  0  0  0
 17 55  1  0  0  0  0
 18 19  1  0  0  0  0
 18 26  2  0  0  0  0
 19 56  1  0  0  0  0
 19 57  1  0  0  0  0
 20 30  1  0  0  0  0
 20 58  1  0  0  0  0
 20 59  1  0  0  0  0
 21 29  1  0  0  0  0
 22 25  1  0  0  0  0
 22 60  1  0  0  0  0
 23 31  1  0  0  0  0
 23 61  1  0  0  0  0
 24 62  1  0  0  0  0
 24 63  1  0  0  0  0
 24 64  1  0  0  0  0
 25 32  2  0  0  0  0
 26 32  1  0  0  0  0
 26 65  1  0  0  0  0
 27 33  2  0  0  0  0
 27 34  1  0  0  0  0
 28 66  1  0  0  0  0
 28 67  1  0  0  0  0
 28 68  1  0  0  0  0
 29 31  2  0  0  0  0
 30 35  2  0  0  0  0
 30 36  1  0  0  0  0
 33 37  1  0  0  0  0
 33 69  1  0  0  0  0
 34 39  2  0  0  0  0
 34 70  1  0  0  0  0
 35 40  1  0  0  0  0
 35 71  1  0  0  0  0
 36 41  2  0  0  0  0
 36 72  1  0  0  0  0
 37 42  2  0  0  0  0
 38 40  2  0  0  0  0
 38 41  1  0  0  0  0
 39 42  1  0  0  0  0
 39 73  1  0  0  0  0
 40 74  1  0  0  0  0
 41 75  1  0  0  0  0
 43 77  1  0  0  0  0
 43 78  1  0  0  0  0
 43 79  1  0  0  0  0
 44 80  1  0  0  0  0
 44 81  1  0  0  0  0
 44 82  1  0  0  0  0
 45 83  1  0  0  0  0
 45 84  1  0  0  0  0
 45 85  1  0  0  0  0
M  END
> <PUBCHEM_COMPOUND_CID>
3085090

> <PUBCHEM_COMPOUND_CANONICALIZED>
1

> <PUBCHEM_CACTVS_COMPLEXITY>
963

> <PUBCHEM_CACTVS_HBOND_ACCEPTOR>
8

> <PUBCHEM_CACTVS_HBOND_DONOR>
1

> <PUBCHEM_CACTVS_ROTATABLE_BOND>
3

> <PUBCHEM_CACTVS_SUBSKEYS>
AAADcfB/OAAAAAAAAAAAAAAAAAAAAAAAAAA8eMGCAAAAAAABVAAAHgAACAAADCzBmAYyBoMABgCAAiBCAACCCAAgIAAIiAAOjIgNJyKGsRuGeCvlwBWLuAew8P8OoAABCAAYQABAAAIQADCAAAAAAAAAAA==

> <PUBCHEM_IUPAC_OPENEYE_NAME>
(1R,14R)-9,21,26-trimethoxy-15,31-dimethyl-7,24-dioxa-15,31-diazaheptacyclo[23.6.2.23,6.18,12.014,19.018,23.028,32]hexatriaconta-3(36),4,6(35),8,10,12(34),18(23),19,21,25,27,32-dodecaen-22-ol

> <PUBCHEM_IUPAC_CAS_NAME>
(1R,14R)-9,21,26-trimethoxy-15,31-dimethyl-7,24-dioxa-15,31-diazaheptacyclo[23.6.2.23,6.18,12.014,19.018,23.028,32]hexatriaconta-3(36),4,6(35),8,10,12(34),18(23),19,21,25,27,32-dodecaen-22-ol

> <PUBCHEM_IUPAC_NAME_MARKUP>
(1<I>R</I>,14<I>R</I>)-9,21,26-trimethoxy-15,31-dimethyl-7,24-dioxa-15,31-diazaheptacyclo[23.6.2.2<SUP>3,6</SUP>.1<SUP>8,12</SUP>.0<SUP>14,19</SUP>.0<SUP>18,23</SUP>.0<SUP>28,32</SUP>]hexatriaconta-3(36),4,6(35),8,10,12(34),18(23),19,21,25,27,32-dodecaen-22-ol

> <PUBCHEM_IUPAC_NAME>
(1R,14R)-9,21,26-trimethoxy-15,31-dimethyl-7,24-dioxa-15,31-diazaheptacyclo[23.6.2.23,6.18,12.014,19.018,23.028,32]hexatriaconta-3(36),4,6(35),8,10,12(34),18(23),19,21,25,27,32-dodecaen-22-ol

> <PUBCHEM_IUPAC_SYSTEMATIC_NAME>
(1R,14R)-9,21,26-trimethoxy-15,31-dimethyl-7,24-dioxa-15,31-diazaheptacyclo[23.6.2.23,6.18,12.014,19.018,23.028,32]hexatriaconta-3(36),4,6(35),8,10,12(34),18(23),19,21,25,27,32-dodecaen-22-ol

> <PUBCHEM_IUPAC_TRADITIONAL_NAME>
(1R,14R)-9,21,26-trimethoxy-15,31-dimethyl-7,24-dioxa-15,31-diazaheptacyclo[23.6.2.23,6.18,12.014,19.018,23.028,32]hexatriaconta-3(36),4,6(35),8,10,12(34),18(23),19,21,25,27,32-dodecaen-22-ol

> <PUBCHEM_IUPAC_INCHI>
InChI=1S/C37H40N2O6/c1-38-14-12-24-19-32(42-4)34-20-27(24)29(38)16-22-6-9-25(10-7-22)44-33-18-23(8-11-31(33)41-3)17-30-28-21-35(43-5)36(40)37(45-34)26(28)13-15-39(30)2/h6-11,18-21,29-30,40H,12-17H2,1-5H3/t29-,30-/m1/s1

> <PUBCHEM_IUPAC_INCHIKEY>
CLRFYZIIRGIXMT-LOYHVIPDSA-N

> <PUBCHEM_XLOGP3_AA>
6.3

> <PUBCHEM_EXACT_MASS>
608.28863700

> <PUBCHEM_MOLECULAR_FORMULA>
C37H40N2O6

> <PUBCHEM_MOLECULAR_WEIGHT>
608.7

> <PUBCHEM_SMILES>
CN1CCC2=CC(=C3C=C2[C@H]1CC4=CC=C(C=C4)OC5=C(C=CC(=C5)C[C@@H]6C7=CC(=C(C(=C7CCN6C)O3)O)OC)OC)OC

> <PUBCHEM_CONNECTIVITY_SMILES>
CN1CCC2=CC(=C3C=C2C1CC4=CC=C(C=C4)OC5=C(C=CC(=C5)CC6C7=CC(=C(C(=C7CCN6C)O3)O)OC)OC)OC

> <PUBCHEM_CACTVS_TPSA>
72.9

> <PUBCHEM_MONOISOTOPIC_WEIGHT>
608.28863700

> <PUBCHEM_TOTAL_CHARGE>
0

> <PUBCHEM_HEAVY_ATOM_COUNT>
45

> <PUBCHEM_ATOM_DEF_STEREO_COUNT>
2

> <PUBCHEM_ATOM_UDEF_STEREO_COUNT>
0

> <PUBCHEM_BOND_DEF_STEREO_COUNT>
0

> <PUBCHEM_BOND_UDEF_STEREO_COUNT>
0

> <PUBCHEM_ISOTOPIC_ATOM_COUNT>
0

> <PUBCHEM_COMPONENT_COUNT>
1

> <PUBCHEM_CACTVS_TAUTO_COUNT>
-1

> <PUBCHEM_COORDINATE_TYPE>
1
5
255

> <PUBCHEM_BONDANNOTATIONS>
10  47  6
11  12  8
11  23  8
12  21  8
15  18  8
15  22  8
18  26  8
21  29  8
22  25  8
23  31  8
25  32  8
26  32  8
27  33  8
27  34  8
29  31  8
30  35  8
30  36  8
33  37  8
34  39  8
35  40  8
36  41  8
37  42  8
38  40  8
38  41  8
39  42  8
9  46  5

$$$$
