21601966
  -OEChem-01202622382D

 61 63  0     1  0  0  0  0  0999 V2000
    2.4732    1.2819    0.0000 O   0  0  0  0  0  0  0  0  0  0  0  0
    9.0226   -0.8545    0.0000 O   0  0  0  0  0  0  0  0  0  0  0  0
    3.8000    0.1686    0.0000 C   0  0  2  0  0  0  0  0  0  0  0  0
    4.6660    0.6686    0.0000 C   0  0  2  0  0  0  0  0  0  0  0  0
    5.5321    0.1686    0.0000 C   0  0  1  0  0  0  0  0  0  0  0  0
    3.8000   -0.8314    0.0000 C   0  0  2  0  0  0  0  0  0  0  0  0
    2.9061   -1.3661    0.0000 C   0  0  0  0  0  0  0  0  0  0  0  0
    5.5321   -0.8314    0.0000 C   0  0  0  0  0  0  0  0  0  0  0  0
    4.6660   -1.3314    0.0000 C   0  0  0  0  0  0  0  0  0  0  0  0
    6.4421    0.6754    0.0000 C   0  0  1  0  0  0  0  0  0  0  0  0
    2.9061    0.7032    0.0000 C   0  0  0  0  0  0  0  0  0  0  0  0
    4.6500    1.7101    0.0000 C   0  0  0  0  0  0  0  0  0  0  0  0
    2.0000   -0.8522    0.0000 C   0  0  0  0  0  0  0  0  0  0  0  0
    2.0000    0.1894    0.0000 C   0  0  0  0  0  0  0  0  0  0  0  0
    6.3981   -0.3314    0.0000 C   0  0  0  0  0  0  0  0  0  0  0  0
    5.5480    2.2378    0.0000 C   0  0  0  0  0  0  0  0  0  0  0  0
    6.4501    1.7170    0.0000 C   0  0  0  0  0  0  0  0  0  0  0  0
    3.4580    1.1083    0.0000 C   0  0  0  0  0  0  0  0  0  0  0  0
    2.4161   -2.2378    0.0000 C   0  0  0  0  0  0  0  0  0  0  0  0
    3.4160   -2.2263    0.0000 C   0  0  0  0  0  0  0  0  0  0  0  0
    7.3022    0.1654    0.0000 C   0  0  0  0  0  0  0  0  0  0  0  0
    8.1740    0.6554    0.0000 C   0  0  0  0  0  0  0  0  0  0  0  0
    7.3180    2.2137    0.0000 C   0  0  0  0  0  0  0  0  0  0  0  0
    9.0342    0.1454    0.0000 C   0  0  0  0  0  0  0  0  0  0  0  0
    9.9059    0.6354    0.0000 C   0  0  0  0  0  0  0  0  0  0  0  0
    5.3989    1.0992    0.0000 H   0  0  0  0  0  0  0  0  0  0  0  0
    3.8066   -1.6814    0.0000 H   0  0  0  0  0  0  0  0  0  0  0  0
    5.7441   -1.4140    0.0000 H   0  0  0  0  0  0  0  0  0  0  0  0
    6.1426   -0.7238    0.0000 H   0  0  0  0  0  0  0  0  0  0  0  0
    4.2675   -1.8064    0.0000 H   0  0  0  0  0  0  0  0  0  0  0  0
    5.0646   -1.8064    0.0000 H   0  0  0  0  0  0  0  0  0  0  0  0
    6.9820    0.9802    0.0000 H   0  0  0  0  0  0  0  0  0  0  0  0
    3.3107    1.1730    0.0000 H   0  0  0  0  0  0  0  0  0  0  0  0
    2.5124    1.1822    0.0000 H   0  0  0  0  0  0  0  0  0  0  0  0
    4.4319    2.2905    0.0000 H   0  0  0  0  0  0  0  0  0  0  0  0
    4.0408    1.5946    0.0000 H   0  0  0  0  0  0  0  0  0  0  0  0
    1.3891   -0.7461    0.0000 H   0  0  0  0  0  0  0  0  0  0  0  0
    1.7909   -1.4359    0.0000 H   0  0  0  0  0  0  0  0  0  0  0  0
    1.7909    0.7731    0.0000 H   0  0  0  0  0  0  0  0  0  0  0  0
    1.3891    0.0833    0.0000 H   0  0  0  0  0  0  0  0  0  0  0  0
    6.0881   -0.8684    0.0000 H   0  0  0  0  0  0  0  0  0  0  0  0
    6.9350   -0.6414    0.0000 H   0  0  0  0  0  0  0  0  0  0  0  0
    6.7081    0.2055    0.0000 H   0  0  0  0  0  0  0  0  0  0  0  0
    5.9453    2.7138    0.0000 H   0  0  0  0  0  0  0  0  0  0  0  0
    5.1470    2.7107    0.0000 H   0  0  0  0  0  0  0  0  0  0  0  0
    3.8565    1.5832    0.0000 H   0  0  0  0  0  0  0  0  0  0  0  0
    1.8756   -1.9341    0.0000 H   0  0  0  0  0  0  0  0  0  0  0  0
    2.1123   -2.7783    0.0000 H   0  0  0  0  0  0  0  0  0  0  0  0
    2.9566   -2.5416    0.0000 H   0  0  0  0  0  0  0  0  0  0  0  0
    2.8827   -2.5425    0.0000 H   0  0  0  0  0  0  0  0  0  0  0  0
    3.7322   -2.7596    0.0000 H   0  0  0  0  0  0  0  0  0  0  0  0
    3.9494   -1.9101    0.0000 H   0  0  0  0  0  0  0  0  0  0  0  0
    6.8982   -0.3049    0.0000 H   0  0  0  0  0  0  0  0  0  0  0  0
    7.6953   -0.3141    0.0000 H   0  0  0  0  0  0  0  0  0  0  0  0
    8.5780    1.1257    0.0000 H   0  0  0  0  0  0  0  0  0  0  0  0
    7.7810    1.1349    0.0000 H   0  0  0  0  0  0  0  0  0  0  0  0
    7.8538    1.9016    0.0000 H   0  0  0  0  0  0  0  0  0  0  0  0
    7.3204    2.8337    0.0000 H   0  0  0  0  0  0  0  0  0  0  0  0
   10.2097    0.0949    0.0000 H   0  0  0  0  0  0  0  0  0  0  0  0
   10.4464    0.9391    0.0000 H   0  0  0  0  0  0  0  0  0  0  0  0
    9.6022    1.1758    0.0000 H   0  0  0  0  0  0  0  0  0  0  0  0
  1 18  2  0  0  0  0
  2 24  2  0  0  0  0
  3  4  1  0  0  0  0
  3  6  1  0  0  0  0
  3 11  1  0  0  0  0
  3 18  1  1  0  0  0
  4  5  1  0  0  0  0
  4 12  1  0  0  0  0
  4 26  1  6  0  0  0
  5  8  1  0  0  0  0
  5 10  1  0  0  0  0
  5 15  1  1  0  0  0
  6  7  1  0  0  0  0
  6  9  1  0  0  0  0
  6 27  1  6  0  0  0
  7 13  1  0  0  0  0
  7 19  1  0  0  0  0
  7 20  1  0  0  0  0
  8  9  1  0  0  0  0
  8 28  1  0  0  0  0
  8 29  1  0  0  0  0
  9 30  1  0  0  0  0
  9 31  1  0  0  0  0
 10 17  1  0  0  0  0
 10 21  1  1  0  0  0
 10 32  1  0  0  0  0
 11 14  1  0  0  0  0
 11 33  1  0  0  0  0
 11 34  1  0  0  0  0
 12 16  1  0  0  0  0
 12 35  1  0  0  0  0
 12 36  1  0  0  0  0
 13 14  1  0  0  0  0
 13 37  1  0  0  0  0
 13 38  1  0  0  0  0
 14 39  1  0  0  0  0
 14 40  1  0  0  0  0
 15 41  1  0  0  0  0
 15 42  1  0  0  0  0
 15 43  1  0  0  0  0
 16 17  1  0  0  0  0
 16 44  1  0  0  0  0
 16 45  1  0  0  0  0
 17 23  2  0  0  0  0
 18 46  1  0  0  0  0
 19 47  1  0  0  0  0
 19 48  1  0  0  0  0
 19 49  1  0  0  0  0
 20 50  1  0  0  0  0
 20 51  1  0  0  0  0
 20 52  1  0  0  0  0
 21 22  1  0  0  0  0
 21 53  1  0  0  0  0
 21 54  1  0  0  0  0
 22 24  1  0  0  0  0
 22 55  1  0  0  0  0
 22 56  1  0  0  0  0
 23 57  1  0  0  0  0
 23 58  1  0  0  0  0
 24 25  1  0  0  0  0
 25 59  1  0  0  0  0
 25 60  1  0  0  0  0
 25 61  1  0  0  0  0
M  END
> <PUBCHEM_COMPOUND_CID>
21601966

> <PUBCHEM_COMPOUND_CANONICALIZED>
1

> <PUBCHEM_CACTVS_COMPLEXITY>
575

> <PUBCHEM_CACTVS_HBOND_ACCEPTOR>
2

> <PUBCHEM_CACTVS_HBOND_DONOR>
0

> <PUBCHEM_CACTVS_ROTATABLE_BOND>
4

> <PUBCHEM_CACTVS_SUBSKEYS>
AAADcfB4MAAAAAAAAAAAAAAAAAAAAAAAAAAwYMAAAAAAAADAAAAAGgAAAAAADwSggAICAAAAAACIAohSgAAAAAAgAAAAAAEAAAgAABIAAQAAAAAAgAAAAAEIiMCPgAAAAAAAAACAAAQAACAAAAAAAAAAAA==

> <PUBCHEM_IUPAC_OPENEYE_NAME>
(4aR,4bS,8R,8aS,10aS)-1,1,8a-trimethyl-7-methylene-8-(3-oxobutyl)-2,3,4,4b,5,6,8,9,10,10a-decahydrophenanthrene-4a-carbaldehyde

> <PUBCHEM_IUPAC_CAS_NAME>
(4aR,4bS,8R,8aS,10aS)-1,1,8a-trimethyl-7-methylene-8-(3-oxobutyl)-2,3,4,4b,5,6,8,9,10,10a-decahydrophenanthrene-4a-carboxaldehyde

> <PUBCHEM_IUPAC_NAME_MARKUP>
(4<I>a</I><I>R</I>,4<I>b</I><I>S</I>,8<I>R</I>,8<I>a</I><I>S</I>,10<I>a</I><I>S</I>)-1,1,8<I>a</I>-trimethyl-7-methylidene-8-(3-oxobutyl)-2,3,4,4<I>b</I>,5,6,8,9,10,10<I>a</I>-decahydrophenanthrene-4<I>a</I>-carbaldehyde

> <PUBCHEM_IUPAC_NAME>
(4aR,4bS,8R,8aS,10aS)-1,1,8a-trimethyl-7-methylidene-8-(3-oxobutyl)-2,3,4,4b,5,6,8,9,10,10a-decahydrophenanthrene-4a-carbaldehyde

> <PUBCHEM_IUPAC_SYSTEMATIC_NAME>
(4aR,4bS,8R,8aS,10aS)-1,1,8a-trimethyl-7-methylidene-8-(3-oxidanylidenebutyl)-2,3,4,4b,5,6,8,9,10,10a-decahydrophenanthrene-4a-carbaldehyde

> <PUBCHEM_IUPAC_TRADITIONAL_NAME>
(4aR,4bS,8R,8aS,10aS)-8-(3-ketobutyl)-1,1,8a-trimethyl-7-methylene-2,3,4,4b,5,6,8,9,10,10a-decahydrophenanthrene-4a-carbaldehyde

> <PUBCHEM_IUPAC_INCHI>
InChI=1S/C23H36O2/c1-16-7-10-20-22(5,18(16)9-8-17(2)25)14-11-19-21(3,4)12-6-13-23(19,20)15-24/h15,18-20H,1,6-14H2,2-5H3/t18-,19+,20+,22+,23-/m1/s1

> <PUBCHEM_IUPAC_INCHIKEY>
KSJHEGGDTGLBND-UZCBEENBSA-N

> <PUBCHEM_XLOGP3_AA>
5.1

> <PUBCHEM_EXACT_MASS>
344.271530387

> <PUBCHEM_MOLECULAR_FORMULA>
C23H36O2

> <PUBCHEM_MOLECULAR_WEIGHT>
344.5

> <PUBCHEM_SMILES>
CC(=O)CC[C@@H]1C(=C)CC[C@H]2[C@]1(CC[C@@H]3[C@@]2(CCCC3(C)C)C=O)C

> <PUBCHEM_CONNECTIVITY_SMILES>
CC(=O)CCC1C(=C)CCC2C1(CCC3C2(CCCC3(C)C)C=O)C

> <PUBCHEM_CACTVS_TPSA>
34.1

> <PUBCHEM_MONOISOTOPIC_WEIGHT>
344.271530387

> <PUBCHEM_TOTAL_CHARGE>
0

> <PUBCHEM_HEAVY_ATOM_COUNT>
25

> <PUBCHEM_ATOM_DEF_STEREO_COUNT>
5

> <PUBCHEM_ATOM_UDEF_STEREO_COUNT>
0

> <PUBCHEM_BOND_DEF_STEREO_COUNT>
0

> <PUBCHEM_BOND_UDEF_STEREO_COUNT>
0

> <PUBCHEM_ISOTOPIC_ATOM_COUNT>
0

> <PUBCHEM_COMPONENT_COUNT>
1

> <PUBCHEM_CACTVS_TAUTO_COUNT>
-1

> <PUBCHEM_COORDINATE_TYPE>
1
5
255

> <PUBCHEM_BONDANNOTATIONS>
10  21  5
3  18  5
4  26  6
5  15  5
6  27  6

$$$$
