107876
  -OEChem-01202622202D

 69 74  0     1  0  0  0  0  0999 V2000
    7.1079    0.3808    0.0000 O   0  0  0  0  0  0  0  0  0  0  0  0
    6.0683    0.8657    0.0000 O   0  0  0  0  0  0  0  0  0  0  0  0
    6.6084   -2.2173    0.0000 O   0  0  0  0  0  0  0  0  0  0  0  0
    7.8003    2.8657    0.0000 O   0  0  0  0  0  0  0  0  0  0  0  0
    6.0683    3.8657    0.0000 O   0  0  0  0  0  0  0  0  0  0  0  0
    4.3199    3.9003    0.0000 O   0  0  0  0  0  0  0  0  0  0  0  0
    3.5766   -0.4640    0.0000 O   0  0  0  0  0  0  0  0  0  0  0  0
    2.5381    0.8415    0.0000 O   0  0  0  0  0  0  0  0  0  0  0  0
    9.9343   -0.3664    0.0000 O   0  0  0  0  0  0  0  0  0  0  0  0
    3.5635   -4.0038    0.0000 O   0  0  0  0  0  0  0  0  0  0  0  0
   10.9343    1.3657    0.0000 O   0  0  0  0  0  0  0  0  0  0  0  0
    9.3355   -4.0045    0.0000 O   0  0  0  0  0  0  0  0  0  0  0  0
   10.8672   -2.7186    0.0000 O   0  0  0  0  0  0  0  0  0  0  0  0
    6.9343    1.3657    0.0000 C   0  0  3  0  0  0  0  0  0  0  0  0
    6.6080   -0.4852    0.0000 C   0  0  3  0  0  0  0  0  0  0  0  0
    6.9343    2.3657    0.0000 C   0  0  3  0  0  0  0  0  0  0  0  0
    7.1083   -1.3512    0.0000 C   0  0  3  0  0  0  0  0  0  0  0  0
    6.0683    2.8657    0.0000 C   0  0  3  0  0  0  0  0  0  0  0  0
    5.6080   -0.4854    0.0000 C   0  0  0  0  0  0  0  0  0  0  0  0
    7.9343    1.3657    0.0000 C   0  0  0  0  0  0  0  0  0  0  0  0
    5.2022    2.3657    0.0000 C   0  0  0  0  0  0  0  0  0  0  0  0
    5.1081   -1.3514    0.0000 C   0  0  0  0  0  0  0  0  0  0  0  0
    5.2022    1.3657    0.0000 C   0  0  0  0  0  0  0  0  0  0  0  0
    8.0480   -1.6931    0.0000 C   0  0  0  0  0  0  0  0  0  0  0  0
    5.6083   -2.2174    0.0000 C   0  0  0  0  0  0  0  0  0  0  0  0
    4.3083    2.9003    0.0000 C   0  0  0  0  0  0  0  0  0  0  0  0
    8.4343    0.4996    0.0000 C   0  0  0  0  0  0  0  0  0  0  0  0
    8.4343    2.2317    0.0000 C   0  0  0  0  0  0  0  0  0  0  0  0
    4.0667   -1.3356    0.0000 C   0  0  0  0  0  0  0  0  0  0  0  0
    4.3083    0.8310    0.0000 C   0  0  0  0  0  0  0  0  0  0  0  0
    5.1016   -3.1275    0.0000 C   0  0  0  0  0  0  0  0  0  0  0  0
    8.2219   -2.6779    0.0000 C   0  0  0  0  0  0  0  0  0  0  0  0
    8.8140   -1.0501    0.0000 C   0  0  0  0  0  0  0  0  0  0  0  0
    3.4022    2.3865    0.0000 C   0  0  0  0  0  0  0  0  0  0  0  0
    3.4022    1.3448    0.0000 C   0  0  0  0  0  0  0  0  0  0  0  0
    9.4343    0.4996    0.0000 C   0  0  0  0  0  0  0  0  0  0  0  0
    9.4343    2.2317    0.0000 C   0  0  0  0  0  0  0  0  0  0  0  0
    3.5391   -2.2338    0.0000 C   0  0  0  0  0  0  0  0  0  0  0  0
    4.0600   -3.1357    0.0000 C   0  0  0  0  0  0  0  0  0  0  0  0
    9.9343    1.3657    0.0000 C   0  0  0  0  0  0  0  0  0  0  0  0
    9.1616   -3.0197    0.0000 C   0  0  0  0  0  0  0  0  0  0  0  0
    9.7537   -1.3920    0.0000 C   0  0  0  0  0  0  0  0  0  0  0  0
    9.9275   -2.3768    0.0000 C   0  0  0  0  0  0  0  0  0  0  0  0
    6.2979    0.0517    0.0000 H   0  0  0  0  0  0  0  0  0  0  0  0
    6.9343    2.9857    0.0000 H   0  0  0  0  0  0  0  0  0  0  0  0
    7.5067   -0.8762    0.0000 H   0  0  0  0  0  0  0  0  0  0  0  0
    5.5313    3.1757    0.0000 H   0  0  0  0  0  0  0  0  0  0  0  0
    5.7156    0.1252    0.0000 H   0  0  0  0  0  0  0  0  0  0  0  0
    5.0254   -0.2734    0.0000 H   0  0  0  0  0  0  0  0  0  0  0  0
    7.8003    3.4857    0.0000 H   0  0  0  0  0  0  0  0  0  0  0  0
    8.1243   -0.0373    0.0000 H   0  0  0  0  0  0  0  0  0  0  0  0
    8.1243    2.7686    0.0000 H   0  0  0  0  0  0  0  0  0  0  0  0
    4.3155    0.2110    0.0000 H   0  0  0  0  0  0  0  0  0  0  0  0
    6.6052    4.1757    0.0000 H   0  0  0  0  0  0  0  0  0  0  0  0
    5.4179   -3.6608    0.0000 H   0  0  0  0  0  0  0  0  0  0  0  0
    7.7470   -3.0765    0.0000 H   0  0  0  0  0  0  0  0  0  0  0  0
    8.7063   -0.4396    0.0000 H   0  0  0  0  0  0  0  0  0  0  0  0
    2.8665    2.6985    0.0000 H   0  0  0  0  0  0  0  0  0  0  0  0
    9.7443    2.7686    0.0000 H   0  0  0  0  0  0  0  0  0  0  0  0
    2.9191   -2.2315    0.0000 H   0  0  0  0  0  0  0  0  0  0  0  0
   10.2285   -0.9934    0.0000 H   0  0  0  0  0  0  0  0  0  0  0  0
    3.7865    4.2164    0.0000 H   0  0  0  0  0  0  0  0  0  0  0  0
    3.8927    0.0694    0.0000 H   0  0  0  0  0  0  0  0  0  0  0  0
    2.0000    1.1494    0.0000 H   0  0  0  0  0  0  0  0  0  0  0  0
   10.5543   -0.3664    0.0000 H   0  0  0  0  0  0  0  0  0  0  0  0
    2.9435   -4.0062    0.0000 H   0  0  0  0  0  0  0  0  0  0  0  0
   11.2443    1.9026    0.0000 H   0  0  0  0  0  0  0  0  0  0  0  0
    9.9180   -4.2164    0.0000 H   0  0  0  0  0  0  0  0  0  0  0  0
   10.9750   -3.3292    0.0000 H   0  0  0  0  0  0  0  0  0  0  0  0
  1 14  1  0  0  0  0
  1 15  1  0  0  0  0
  2 14  1  0  0  0  0
  2 23  1  0  0  0  0
  3 17  1  0  0  0  0
  3 25  1  0  0  0  0
  4 16  1  0  0  0  0
  4 50  1  0  0  0  0
  5 18  1  0  0  0  0
  5 54  1  0  0  0  0
  6 26  1  0  0  0  0
  6 62  1  0  0  0  0
  7 29  1  0  0  0  0
  7 63  1  0  0  0  0
  8 35  1  0  0  0  0
  8 64  1  0  0  0  0
  9 36  1  0  0  0  0
  9 65  1  0  0  0  0
 10 39  1  0  0  0  0
 10 66  1  0  0  0  0
 11 40  1  0  0  0  0
 11 67  1  0  0  0  0
 12 41  1  0  0  0  0
 12 68  1  0  0  0  0
 13 43  1  0  0  0  0
 13 69  1  0  0  0  0
 14 16  1  0  0  0  0
 14 20  1  0  0  0  0
 15 17  1  0  0  0  0
 15 19  1  0  0  0  0
 15 44  1  0  0  0  0
 16 18  1  0  0  0  0
 16 45  1  0  0  0  0
 17 24  1  0  0  0  0
 17 46  1  0  0  0  0
 18 21  1  0  0  0  0
 18 47  1  0  0  0  0
 19 22  1  0  0  0  0
 19 48  1  0  0  0  0
 19 49  1  0  0  0  0
 20 27  2  0  0  0  0
 20 28  1  0  0  0  0
 21 23  1  0  0  0  0
 21 26  2  0  0  0  0
 22 25  1  0  0  0  0
 22 29  2  0  0  0  0
 23 30  2  0  0  0  0
 24 32  2  0  0  0  0
 24 33  1  0  0  0  0
 25 31  2  0  0  0  0
 26 34  1  0  0  0  0
 27 36  1  0  0  0  0
 27 51  1  0  0  0  0
 28 37  2  0  0  0  0
 28 52  1  0  0  0  0
 29 38  1  0  0  0  0
 30 35  1  0  0  0  0
 30 53  1  0  0  0  0
 31 39  1  0  0  0  0
 31 55  1  0  0  0  0
 32 41  1  0  0  0  0
 32 56  1  0  0  0  0
 33 42  2  0  0  0  0
 33 57  1  0  0  0  0
 34 35  2  0  0  0  0
 34 58  1  0  0  0  0
 36 40  2  0  0  0  0
 37 40  1  0  0  0  0
 37 59  1  0  0  0  0
 38 39  2  0  0  0  0
 38 60  1  0  0  0  0
 41 43  2  0  0  0  0
 42 43  1  0  0  0  0
 42 61  1  0  0  0  0
M  END
> <PUBCHEM_COMPOUND_CID>
107876

> <PUBCHEM_COMPOUND_CANONICALIZED>
1

> <PUBCHEM_CACTVS_COMPLEXITY>
957

> <PUBCHEM_CACTVS_HBOND_ACCEPTOR>
13

> <PUBCHEM_CACTVS_HBOND_DONOR>
10

> <PUBCHEM_CACTVS_ROTATABLE_BOND>
4

> <PUBCHEM_CACTVS_SUBSKEYS>
AAADceB4PAAAAAAAAAAAAAAAAAAAAAAAAAA0aMGCAAAAAACRVAAAGgAACAAADBSgmAIwDoAABgCAAiBCAAACCAAgIAAIiAAGiIgdNyKGMRqieCGlwBUPuAfA4PwOIAABCAAIQABAAAIQABCAAAAAAAAAAA==

> <PUBCHEM_IUPAC_OPENEYE_NAME>
2-(3,4-dihydroxyphenyl)-2-[2-(3,4-dihydroxyphenyl)-5,7-dihydroxy-chroman-3-yl]oxy-chromane-3,4,5,7-tetrol

> <PUBCHEM_IUPAC_CAS_NAME>
2-(3,4-dihydroxyphenyl)-2-[[2-(3,4-dihydroxyphenyl)-5,7-dihydroxy-3,4-dihydro-2H-1-benzopyran-3-yl]oxy]-3,4-dihydro-2H-1-benzopyran-3,4,5,7-tetrol

> <PUBCHEM_IUPAC_NAME_MARKUP>
2-(3,4-dihydroxyphenyl)-2-[[2-(3,4-dihydroxyphenyl)-5,7-dihydroxy-3,4-dihydro-2<I>H</I>-chromen-3-yl]oxy]-3,4-dihydrochromene-3,4,5,7-tetrol

> <PUBCHEM_IUPAC_NAME>
2-(3,4-dihydroxyphenyl)-2-[[2-(3,4-dihydroxyphenyl)-5,7-dihydroxy-3,4-dihydro-2H-chromen-3-yl]oxy]-3,4-dihydrochromene-3,4,5,7-tetrol

> <PUBCHEM_IUPAC_SYSTEMATIC_NAME>
2-[3,4-bis(oxidanyl)phenyl]-2-[[2-[3,4-bis(oxidanyl)phenyl]-5,7-bis(oxidanyl)-3,4-dihydro-2H-chromen-3-yl]oxy]-3,4-dihydrochromene-3,4,5,7-tetrol

> <PUBCHEM_IUPAC_TRADITIONAL_NAME>
2-(3,4-dihydroxyphenyl)-2-[2-(3,4-dihydroxyphenyl)-5,7-dihydroxy-chroman-3-yl]oxy-chroman-3,4,5,7-tetrol

> <PUBCHEM_IUPAC_INCHI>
InChI=1S/C30H26O13/c31-14-7-19(35)16-11-25(28(41-23(16)9-14)12-1-3-17(33)20(36)5-12)43-30(13-2-4-18(34)21(37)6-13)29(40)27(39)26-22(38)8-15(32)10-24(26)42-30/h1-10,25,27-29,31-40H,11H2

> <PUBCHEM_IUPAC_INCHIKEY>
HGVVOUNEGQIPMS-UHFFFAOYSA-N

> <PUBCHEM_XLOGP3_AA>
2

> <PUBCHEM_EXACT_MASS>
594.13734088

> <PUBCHEM_MOLECULAR_FORMULA>
C30H26O13

> <PUBCHEM_MOLECULAR_WEIGHT>
594.5

> <PUBCHEM_SMILES>
C1C(C(OC2=CC(=CC(=C21)O)O)C3=CC(=C(C=C3)O)O)OC4(C(C(C5=C(C=C(C=C5O4)O)O)O)O)C6=CC(=C(C=C6)O)O

> <PUBCHEM_CONNECTIVITY_SMILES>
C1C(C(OC2=CC(=CC(=C21)O)O)C3=CC(=C(C=C3)O)O)OC4(C(C(C5=C(C=C(C=C5O4)O)O)O)O)C6=CC(=C(C=C6)O)O

> <PUBCHEM_CACTVS_TPSA>
230

> <PUBCHEM_MONOISOTOPIC_WEIGHT>
594.13734088

> <PUBCHEM_TOTAL_CHARGE>
0

> <PUBCHEM_HEAVY_ATOM_COUNT>
43

> <PUBCHEM_ATOM_DEF_STEREO_COUNT>
0

> <PUBCHEM_ATOM_UDEF_STEREO_COUNT>
5

> <PUBCHEM_BOND_DEF_STEREO_COUNT>
0

> <PUBCHEM_BOND_UDEF_STEREO_COUNT>
0

> <PUBCHEM_ISOTOPIC_ATOM_COUNT>
0

> <PUBCHEM_COMPONENT_COUNT>
1

> <PUBCHEM_CACTVS_TAUTO_COUNT>
-1

> <PUBCHEM_COORDINATE_TYPE>
1
5
255

> <PUBCHEM_BONDANNOTATIONS>
14  1  3
15  1  3
17  24  3
20  27  8
20  28  8
21  23  8
21  26  8
22  25  8
22  29  8
23  30  8
24  32  8
24  33  8
25  31  8
26  34  8
27  36  8
28  37  8
29  38  8
30  35  8
31  39  8
32  41  8
33  42  8
34  35  8
36  40  8
37  40  8
38  39  8
16  4  3
41  43  8
42  43  8
18  5  3

$$$$
