5352899
  -OEChem-01202622332D

 26 27  0     0  0  0  0  0  0999 V2000
    5.2619   -1.2196    0.0000 O   0  0  0  0  0  0  0  0  0  0  0  0
    4.9889   -2.9748    0.0000 O   0  0  0  0  0  0  0  0  0  0  0  0
    3.7321   -0.7196    0.0000 C   0  0  0  0  0  0  0  0  0  0  0  0
    4.3211    1.2800    0.0000 C   0  0  0  0  0  0  0  0  0  0  0  0
    4.6783   -0.4148    0.0000 C   0  0  0  0  0  0  0  0  0  0  0  0
    3.7321   -1.7196    0.0000 C   0  0  0  0  0  0  0  0  0  0  0  0
    4.6318    2.2305    0.0000 C   0  0  0  0  0  0  0  0  0  0  0  0
    4.9889    0.5357    0.0000 C   0  0  0  0  0  0  0  0  0  0  0  0
    2.8660   -0.2196    0.0000 C   0  0  0  0  0  0  0  0  0  0  0  0
    4.6783   -2.0243    0.0000 C   0  0  0  0  0  0  0  0  0  0  0  0
    2.8660   -2.2196    0.0000 C   0  0  0  0  0  0  0  0  0  0  0  0
    3.9639    2.9748    0.0000 C   0  0  0  0  0  0  0  0  0  0  0  0
    2.0000   -0.7196    0.0000 C   0  0  0  0  0  0  0  0  0  0  0  0
    2.0000   -1.7196    0.0000 C   0  0  0  0  0  0  0  0  0  0  0  0
    3.7742    1.5720    0.0000 H   0  0  0  0  0  0  0  0  0  0  0  0
    3.9385    0.7921    0.0000 H   0  0  0  0  0  0  0  0  0  0  0  0
    5.1787    1.9385    0.0000 H   0  0  0  0  0  0  0  0  0  0  0  0
    5.0143    2.7184    0.0000 H   0  0  0  0  0  0  0  0  0  0  0  0
    5.5956    0.6635    0.0000 H   0  0  0  0  0  0  0  0  0  0  0  0
    2.8660    0.4004    0.0000 H   0  0  0  0  0  0  0  0  0  0  0  0
    2.8660   -2.8396    0.0000 H   0  0  0  0  0  0  0  0  0  0  0  0
    4.4254    3.3889    0.0000 H   0  0  0  0  0  0  0  0  0  0  0  0
    3.5498    3.4363    0.0000 H   0  0  0  0  0  0  0  0  0  0  0  0
    3.5024    2.5608    0.0000 H   0  0  0  0  0  0  0  0  0  0  0  0
    1.4631   -0.4096    0.0000 H   0  0  0  0  0  0  0  0  0  0  0  0
    1.4631   -2.0296    0.0000 H   0  0  0  0  0  0  0  0  0  0  0  0
  1  5  1  0  0  0  0
  1 10  1  0  0  0  0
  2 10  2  0  0  0  0
  3  5  1  0  0  0  0
  3  6  1  0  0  0  0
  3  9  2  0  0  0  0
  4  7  1  0  0  0  0
  4  8  1  0  0  0  0
  4 15  1  0  0  0  0
  4 16  1  0  0  0  0
  5  8  2  0  0  0  0
  6 10  1  0  0  0  0
  6 11  2  0  0  0  0
  7 12  1  0  0  0  0
  7 17  1  0  0  0  0
  7 18  1  0  0  0  0
  8 19  1  0  0  0  0
  9 13  1  0  0  0  0
  9 20  1  0  0  0  0
 11 14  1  0  0  0  0
 11 21  1  0  0  0  0
 12 22  1  0  0  0  0
 12 23  1  0  0  0  0
 12 24  1  0  0  0  0
 13 14  2  0  0  0  0
 13 25  1  0  0  0  0
 14 26  1  0  0  0  0
M  END
> <PUBCHEM_COMPOUND_CID>
5352899

> <PUBCHEM_COMPOUND_CANONICALIZED>
1

> <PUBCHEM_CACTVS_COMPLEXITY>
255

> <PUBCHEM_CACTVS_HBOND_ACCEPTOR>
2

> <PUBCHEM_CACTVS_HBOND_DONOR>
0

> <PUBCHEM_CACTVS_ROTATABLE_BOND>
2

> <PUBCHEM_CACTVS_SUBSKEYS>
AAADccBwMAAAAAAAAAAAAAAAAAAAASAAAAAwAAAAAAAAAEgBAAAAGgAAAAAADASAmAAyCIAABACIAiDSCAACCAAkIAAIiAEACMgIJjKANRiCMQAkwAEIqYeKyKCOgAAAAAAQAAAAAAAAACAAAAAAAAAAAA==

> <PUBCHEM_IUPAC_OPENEYE_NAME>
(3E)-3-butylideneisobenzofuran-1-one

> <PUBCHEM_IUPAC_CAS_NAME>
(3E)-3-butylidene-1-isobenzofuranone

> <PUBCHEM_IUPAC_NAME_MARKUP>
(3<I>E</I>)-3-butylidene-2-benzofuran-1-one

> <PUBCHEM_IUPAC_NAME>
(3E)-3-butylidene-2-benzofuran-1-one

> <PUBCHEM_IUPAC_SYSTEMATIC_NAME>
(3E)-3-butylidene-2-benzofuran-1-one

> <PUBCHEM_IUPAC_TRADITIONAL_NAME>
(3E)-3-butylidenephthalide

> <PUBCHEM_IUPAC_INCHI>
InChI=1S/C12H12O2/c1-2-3-8-11-9-6-4-5-7-10(9)12(13)14-11/h4-8H,2-3H2,1H3/b11-8+

> <PUBCHEM_IUPAC_INCHIKEY>
WMBOCUXXNSOQHM-DHZHZOJOSA-N

> <PUBCHEM_XLOGP3_AA>
3.2

> <PUBCHEM_EXACT_MASS>
188.083729621

> <PUBCHEM_MOLECULAR_FORMULA>
C12H12O2

> <PUBCHEM_MOLECULAR_WEIGHT>
188.22

> <PUBCHEM_SMILES>
CCC/C=C/1\C2=CC=CC=C2C(=O)O1

> <PUBCHEM_CONNECTIVITY_SMILES>
CCCC=C1C2=CC=CC=C2C(=O)O1

> <PUBCHEM_CACTVS_TPSA>
26.3

> <PUBCHEM_MONOISOTOPIC_WEIGHT>
188.083729621

> <PUBCHEM_TOTAL_CHARGE>
0

> <PUBCHEM_HEAVY_ATOM_COUNT>
14

> <PUBCHEM_ATOM_DEF_STEREO_COUNT>
0

> <PUBCHEM_ATOM_UDEF_STEREO_COUNT>
0

> <PUBCHEM_BOND_DEF_STEREO_COUNT>
1

> <PUBCHEM_BOND_UDEF_STEREO_COUNT>
0

> <PUBCHEM_ISOTOPIC_ATOM_COUNT>
0

> <PUBCHEM_COMPONENT_COUNT>
1

> <PUBCHEM_CACTVS_TAUTO_COUNT>
-1

> <PUBCHEM_COORDINATE_TYPE>
1
5
255

> <PUBCHEM_BONDANNOTATIONS>
11  14  8
13  14  8
3  6  8
3  9  8
6  11  8
9  13  8

$$$$
