78384860
  -OEChem-01202622392D

 48 52  0     1  0  0  0  0  0999 V2000
    5.3995    3.8215    0.0000 O   0  0  0  0  0  0  0  0  0  0  0  0
    4.5632    2.3048    0.0000 O   0  0  0  0  0  0  0  0  0  0  0  0
    8.0266    2.3730    0.0000 O   0  0  0  0  0  0  0  0  0  0  0  0
    6.3146    1.3391    0.0000 O   0  0  0  0  0  0  0  0  0  0  0  0
    7.9872    4.3726    0.0000 O   0  0  0  0  0  0  0  0  0  0  0  0
    2.8660   -0.6942    0.0000 O   0  0  0  0  0  0  0  0  0  0  0  0
    6.3981   -1.7150    0.0000 O   0  0  0  0  0  0  0  0  0  0  0  0
    2.8611    1.2911    0.0000 O   0  0  0  0  0  0  0  0  0  0  0  0
    6.3038   -3.7472    0.0000 O   0  0  0  0  0  0  0  0  0  0  0  0
    7.2622   -0.1700    0.0000 O   0  0  0  0  0  0  0  0  0  0  0  0
    4.5632   -4.6931    0.0000 O   0  0  0  0  0  0  0  0  0  0  0  0
    2.0000   -2.1942    0.0000 O   0  0  0  0  0  0  0  0  0  0  0  0
    7.1509    2.8558    0.0000 C   0  0  3  0  0  0  0  0  0  0  0  0
    6.2949    2.3389    0.0000 C   0  0  3  0  0  0  0  0  0  0  0  0
    7.1312    3.8556    0.0000 C   0  0  3  0  0  0  0  0  0  0  0  0
    5.4192    2.8217    0.0000 C   0  0  3  0  0  0  0  0  0  0  0  0
    6.2555    4.3385    0.0000 C   0  0  0  0  0  0  0  0  0  0  0  0
    4.5981   -0.6942    0.0000 C   0  0  0  0  0  0  0  0  0  0  0  0
    4.5828    1.3050    0.0000 C   0  0  0  0  0  0  0  0  0  0  0  0
    4.5981   -1.6942    0.0000 C   0  0  0  0  0  0  0  0  0  0  0  0
    5.4920   -0.1595    0.0000 C   0  0  0  0  0  0  0  0  0  0  0  0
    3.7320   -0.1942    0.0000 C   0  0  0  0  0  0  0  0  0  0  0  0
    3.7308    0.7975    0.0000 C   0  0  0  0  0  0  0  0  0  0  0  0
    5.4542    0.8315    0.0000 C   0  0  0  0  0  0  0  0  0  0  0  0
    3.7320   -2.1942    0.0000 C   0  0  0  0  0  0  0  0  0  0  0  0
    5.4920   -2.2288    0.0000 C   0  0  0  0  0  0  0  0  0  0  0  0
    6.3981   -0.6734    0.0000 C   0  0  0  0  0  0  0  0  0  0  0  0
    5.4542   -3.2198    0.0000 C   0  0  0  0  0  0  0  0  0  0  0  0
    2.8660   -1.6942    0.0000 C   0  0  0  0  0  0  0  0  0  0  0  0
    3.7308   -3.1859    0.0000 C   0  0  0  0  0  0  0  0  0  0  0  0
    4.5828   -3.6933    0.0000 C   0  0  0  0  0  0  0  0  0  0  0  0
    6.2718   -4.7467    0.0000 C   0  0  0  0  0  0  0  0  0  0  0  0
    7.6816    3.1763    0.0000 H   0  0  0  0  0  0  0  0  0  0  0  0
    6.8378    2.0395    0.0000 H   0  0  0  0  0  0  0  0  0  0  0  0
    7.1190    4.4755    0.0000 H   0  0  0  0  0  0  0  0  0  0  0  0
    5.4314    2.2019    0.0000 H   0  0  0  0  0  0  0  0  0  0  0  0
    6.6446    4.8212    0.0000 H   0  0  0  0  0  0  0  0  0  0  0  0
    5.8477    4.8055    0.0000 H   0  0  0  0  0  0  0  0  0  0  0  0
    5.9810    1.1585    0.0000 H   0  0  0  0  0  0  0  0  0  0  0  0
    8.5573    2.6935    0.0000 H   0  0  0  0  0  0  0  0  0  0  0  0
    6.8575    1.0397    0.0000 H   0  0  0  0  0  0  0  0  0  0  0  0
    7.9750    4.9925    0.0000 H   0  0  0  0  0  0  0  0  0  0  0  0
    3.1916   -3.4919    0.0000 H   0  0  0  0  0  0  0  0  0  0  0  0
    2.8565    1.9111    0.0000 H   0  0  0  0  0  0  0  0  0  0  0  0
    4.0202   -4.9925    0.0000 H   0  0  0  0  0  0  0  0  0  0  0  0
    5.6522   -4.7269    0.0000 H   0  0  0  0  0  0  0  0  0  0  0  0
    6.2520   -5.3664    0.0000 H   0  0  0  0  0  0  0  0  0  0  0  0
    6.8915   -4.7666    0.0000 H   0  0  0  0  0  0  0  0  0  0  0  0
  1 16  1  0  0  0  0
  1 17  1  0  0  0  0
  2 16  1  0  0  0  0
  2 19  1  0  0  0  0
  3 13  1  0  0  0  0
  3 40  1  0  0  0  0
  4 14  1  0  0  0  0
  4 41  1  0  0  0  0
  5 15  1  0  0  0  0
  5 42  1  0  0  0  0
  6 22  1  0  0  0  0
  6 29  1  0  0  0  0
  7 26  1  0  0  0  0
  7 27  1  0  0  0  0
  8 23  1  0  0  0  0
  8 44  1  0  0  0  0
  9 28  1  0  0  0  0
  9 32  1  0  0  0  0
 10 27  2  0  0  0  0
 11 31  1  0  0  0  0
 11 45  1  0  0  0  0
 12 29  2  0  0  0  0
 13 14  1  0  0  0  0
 13 15  1  0  0  0  0
 13 33  1  0  0  0  0
 14 16  1  0  0  0  0
 14 34  1  0  0  0  0
 15 17  1  0  0  0  0
 15 35  1  0  0  0  0
 16 36  1  0  0  0  0
 17 37  1  0  0  0  0
 17 38  1  0  0  0  0
 18 20  1  0  0  0  0
 18 21  1  0  0  0  0
 18 22  2  0  0  0  0
 19 23  2  0  0  0  0
 19 24  1  0  0  0  0
 20 25  1  0  0  0  0
 20 26  2  0  0  0  0
 21 24  2  0  0  0  0
 21 27  1  0  0  0  0
 22 23  1  0  0  0  0
 24 39  1  0  0  0  0
 25 29  1  0  0  0  0
 25 30  2  0  0  0  0
 26 28  1  0  0  0  0
 28 31  2  0  0  0  0
 30 31  1  0  0  0  0
 30 43  1  0  0  0  0
 32 46  1  0  0  0  0
 32 47  1  0  0  0  0
 32 48  1  0  0  0  0
M  END
> <PUBCHEM_COMPOUND_CID>
78384860

> <PUBCHEM_COMPOUND_CANONICALIZED>
1

> <PUBCHEM_CACTVS_COMPLEXITY>
761

> <PUBCHEM_CACTVS_HBOND_ACCEPTOR>
12

> <PUBCHEM_CACTVS_HBOND_DONOR>
5

> <PUBCHEM_CACTVS_ROTATABLE_BOND>
3

> <PUBCHEM_CACTVS_SUBSKEYS>
AAADceB4PAAAAAAAAAAAAAAAAAAAAAAAAAA0aJECAAAAAACRQAAAGgAACAAADBSwmAMyDoAABgCIAiDSCAACCAAkIAAAiAEGiMgdNzKGNBqieyOlwBUPuYfK7PzOoAABCAAYQABAAAIQADCAAAAAAAAAAA==

> <PUBCHEM_IUPAC_OPENEYE_NAME>
6,14-dihydroxy-7-methoxy-13-(3,4,5-trihydroxytetrahydropyran-2-yl)oxy-2,9-dioxatetracyclo[6.6.2.04,16.011,15]hexadeca-1(15),4,6,8(16),11,13-hexaene-3,10-dione

> <PUBCHEM_IUPAC_CAS_NAME>
6,14-dihydroxy-7-methoxy-13-[(3,4,5-trihydroxy-2-oxanyl)oxy]-2,9-dioxatetracyclo[6.6.2.04,16.011,15]hexadeca-1(15),4,6,8(16),11,13-hexaene-3,10-dione

> <PUBCHEM_IUPAC_NAME_MARKUP>
6,14-dihydroxy-7-methoxy-13-(3,4,5-trihydroxyoxan-2-yl)oxy-2,9-dioxatetracyclo[6.6.2.0<SUP>4,16</SUP>.0<SUP>11,15</SUP>]hexadeca-1(15),4,6,8(16),11,13-hexaene-3,10-dione

> <PUBCHEM_IUPAC_NAME>
6,14-dihydroxy-7-methoxy-13-(3,4,5-trihydroxyoxan-2-yl)oxy-2,9-dioxatetracyclo[6.6.2.04,16.011,15]hexadeca-1(15),4,6,8(16),11,13-hexaene-3,10-dione

> <PUBCHEM_IUPAC_SYSTEMATIC_NAME>
7-methoxy-6,14-bis(oxidanyl)-13-[3,4,5-tris(oxidanyl)oxan-2-yl]oxy-2,9-dioxatetracyclo[6.6.2.04,16.011,15]hexadeca-1(15),4,6,8(16),11,13-hexaene-3,10-dione

> <PUBCHEM_IUPAC_TRADITIONAL_NAME>
6,14-dihydroxy-7-methoxy-13-(3,4,5-trihydroxytetrahydropyran-2-yl)oxy-2,9-dioxatetracyclo[6.6.2.04,16.011,15]hexadeca-1(15),4,6,8(16),11,13-hexaene-3,10-quinone

> <PUBCHEM_IUPAC_INCHI>
InChI=1S/C20H16O12/c1-28-15-7(21)2-5-11-10-6(19(27)32-17(11)15)3-9(13(24)16(10)31-18(5)26)30-20-14(25)12(23)8(22)4-29-20/h2-3,8,12,14,20-25H,4H2,1H3

> <PUBCHEM_IUPAC_INCHIKEY>
VAXNJGHUQUHOGC-UHFFFAOYSA-N

> <PUBCHEM_XLOGP3_AA>
-0.3

> <PUBCHEM_EXACT_MASS>
448.06417594

> <PUBCHEM_MOLECULAR_FORMULA>
C20H16O12

> <PUBCHEM_MOLECULAR_WEIGHT>
448.3

> <PUBCHEM_SMILES>
COC1=C(C=C2C3=C1OC(=O)C4=CC(=C(C(=C43)OC2=O)O)OC5C(C(C(CO5)O)O)O)O

> <PUBCHEM_CONNECTIVITY_SMILES>
COC1=C(C=C2C3=C1OC(=O)C4=CC(=C(C(=C43)OC2=O)O)OC5C(C(C(CO5)O)O)O)O

> <PUBCHEM_CACTVS_TPSA>
181

> <PUBCHEM_MONOISOTOPIC_WEIGHT>
448.06417594

> <PUBCHEM_TOTAL_CHARGE>
0

> <PUBCHEM_HEAVY_ATOM_COUNT>
32

> <PUBCHEM_ATOM_DEF_STEREO_COUNT>
0

> <PUBCHEM_ATOM_UDEF_STEREO_COUNT>
4

> <PUBCHEM_BOND_DEF_STEREO_COUNT>
0

> <PUBCHEM_BOND_UDEF_STEREO_COUNT>
0

> <PUBCHEM_ISOTOPIC_ATOM_COUNT>
0

> <PUBCHEM_COMPONENT_COUNT>
1

> <PUBCHEM_CACTVS_TAUTO_COUNT>
-1

> <PUBCHEM_COORDINATE_TYPE>
1
5
255

> <PUBCHEM_BONDANNOTATIONS>
18  20  8
18  21  8
18  22  8
19  23  8
19  24  8
16  2  3
20  25  8
20  26  8
21  24  8
21  27  8
22  23  8
25  29  8
25  30  8
26  28  8
28  31  8
13  3  3
30  31  8
14  4  3
15  5  3
6  22  8
6  29  8
7  26  8
7  27  8

$$$$
