5460341
  -OEChem-01202613542D

  1  0  0     0  0  0  0  0  0999 V2000
    2.0000    0.0000    0.0000 Ca  0  0  0  0  0 15  0  0  0  0  0  0
M  END
> <PUBCHEM_COMPOUND_CID>
5460341

> <PUBCHEM_COMPOUND_CANONICALIZED>
1

> <PUBCHEM_CACTVS_COMPLEXITY>
0

> <PUBCHEM_CACTVS_HBOND_ACCEPTOR>
0

> <PUBCHEM_CACTVS_HBOND_DONOR>
0

> <PUBCHEM_CACTVS_ROTATABLE_BOND>
0

> <PUBCHEM_CACTVS_SUBSKEYS>
AAADcQAAAAAAAAgAAAAAAAAAAAAAAAAAAAAAAAAAAAAAAAAAAAAAAAAAAAAAAAAAAAAAAAAAAAAAAAAAAAAAAAAAAAAAAAAAAAAAAAAAAAAAAAAAAAAAAAAAAAAAAAAAAAAAAAAAAAAAAAAAAAAAAAAAAA==

> <PUBCHEM_IUPAC_OPENEYE_NAME>
calcium

> <PUBCHEM_IUPAC_CAS_NAME>
calcium

> <PUBCHEM_IUPAC_NAME_MARKUP>
calcium

> <PUBCHEM_IUPAC_NAME>
calcium

> <PUBCHEM_IUPAC_SYSTEMATIC_NAME>
calcium

> <PUBCHEM_IUPAC_TRADITIONAL_NAME>
calcium

> <PUBCHEM_IUPAC_INCHI>
InChI=1S/Ca

> <PUBCHEM_IUPAC_INCHIKEY>
OYPRJOBELJOOCE-UHFFFAOYSA-N

> <PUBCHEM_EXACT_MASS>
39.9625908

> <PUBCHEM_MOLECULAR_FORMULA>
Ca

> <PUBCHEM_MOLECULAR_WEIGHT>
40.08

> <PUBCHEM_SMILES>
[Ca]

> <PUBCHEM_CONNECTIVITY_SMILES>
[Ca]

> <PUBCHEM_CACTVS_TPSA>
0

> <PUBCHEM_MONOISOTOPIC_WEIGHT>
39.9625908

> <PUBCHEM_TOTAL_CHARGE>
0

> <PUBCHEM_HEAVY_ATOM_COUNT>
1

> <PUBCHEM_ATOM_DEF_STEREO_COUNT>
0

> <PUBCHEM_ATOM_UDEF_STEREO_COUNT>
0

> <PUBCHEM_BOND_DEF_STEREO_COUNT>
0

> <PUBCHEM_BOND_UDEF_STEREO_COUNT>
0

> <PUBCHEM_ISOTOPIC_ATOM_COUNT>
0

> <PUBCHEM_COMPONENT_COUNT>
1

> <PUBCHEM_CACTVS_TAUTO_COUNT>
-1

> <PUBCHEM_COORDINATE_TYPE>
1
5
255

$$$$
