164999
  -OEChem-01202622212D

 75 78  0     1  0  0  0  0  0999 V2000
    8.6620    3.1330    0.0000 Cl  0  5  0  0  0  0  0  0  0  0  0  0
   11.2079   -1.3968    0.0000 O   0  0  0  0  0  0  0  0  0  0  0  0
    5.1350   -0.8812    0.0000 O   0  0  0  0  0  0  0  0  0  0  0  0
   10.3592    0.1131    0.0000 O   0  0  0  0  0  0  0  0  0  0  0  0
    6.8671   -0.8812    0.0000 O   0  0  0  0  0  0  0  0  0  0  0  0
    8.5926   -2.8667    0.0000 O   0  0  0  0  0  0  0  0  0  0  0  0
   10.3130   -3.8866    0.0000 O   0  0  0  0  0  0  0  0  0  0  0  0
    5.1350   -3.8812    0.0000 O   0  0  0  0  0  0  0  0  0  0  0  0
    3.4030   -2.8812    0.0000 O   0  0  0  0  0  0  0  0  0  0  0  0
    8.6158   -0.8668    0.0000 O   0  0  0  0  0  0  0  0  0  0  0  0
    6.8671   -2.8812    0.0000 O   0  0  0  0  0  0  0  0  0  0  0  0
   12.9282   -2.4168    0.0000 O   0  0  0  0  0  0  0  0  0  0  0  0
    2.5369   -1.3812    0.0000 O   0  0  0  0  0  0  0  0  0  0  0  0
    8.6504    2.1330    0.0000 O   0  3  0  0  0  0  0  0  0  0  0  0
    5.1208    2.1980    0.0000 O   0  0  0  0  0  0  0  0  0  0  0  0
   12.9745    1.5830    0.0000 O   0  0  0  0  0  0  0  0  0  0  0  0
   12.9976    3.5828    0.0000 O   0  0  0  0  0  0  0  0  0  0  0  0
    9.4644   -2.3767    0.0000 C   0  0  1  0  0  0  0  0  0  0  0  0
   10.3246   -2.8867    0.0000 C   0  0  1  0  0  0  0  0  0  0  0  0
    5.1350   -2.8812    0.0000 C   0  0  1  0  0  0  0  0  0  0  0  0
    4.2690   -2.3812    0.0000 C   0  0  1  0  0  0  0  0  0  0  0  0
    9.4759   -1.3768    0.0000 C   0  0  2  0  0  0  0  0  0  0  0  0
    6.0010   -2.3812    0.0000 C   0  0  2  0  0  0  0  0  0  0  0  0
   11.1963   -2.3967    0.0000 C   0  0  1  0  0  0  0  0  0  0  0  0
    4.2690   -1.3812    0.0000 C   0  0  1  0  0  0  0  0  0  0  0  0
   10.3477   -0.8868    0.0000 C   0  0  1  0  0  0  0  0  0  0  0  0
    6.0010   -1.3812    0.0000 C   0  0  1  0  0  0  0  0  0  0  0  0
   12.0565   -2.9067    0.0000 C   0  0  0  0  0  0  0  0  0  0  0  0
    3.4030   -0.8812    0.0000 C   0  0  0  0  0  0  0  0  0  0  0  0
    6.8671    0.1188    0.0000 C   0  0  0  0  0  0  0  0  0  0  0  0
    9.4991    0.6231    0.0000 C   0  0  0  0  0  0  0  0  0  0  0  0
    7.7671    0.6431    0.0000 C   0  0  0  0  0  0  0  0  0  0  0  0
    8.6273    0.1331    0.0000 C   0  0  0  0  0  0  0  0  0  0  0  0
    9.5106    1.6230    0.0000 C   0  0  0  0  0  0  0  0  0  0  0  0
    7.7787    1.6431    0.0000 C   0  0  0  0  0  0  0  0  0  0  0  0
    5.9670    0.6431    0.0000 C   0  0  0  0  0  0  0  0  0  0  0  0
    6.8910    2.1880    0.0000 C   0  0  0  0  0  0  0  0  0  0  0  0
    5.9790    1.6847    0.0000 C   0  0  0  0  0  0  0  0  0  0  0  0
   10.3824    2.1130    0.0000 C   0  0  0  0  0  0  0  0  0  0  0  0
   11.2426    1.6030    0.0000 C   0  0  0  0  0  0  0  0  0  0  0  0
   10.3939    3.1129    0.0000 C   0  0  0  0  0  0  0  0  0  0  0  0
   12.1143    2.0930    0.0000 C   0  0  0  0  0  0  0  0  0  0  0  0
   11.2657    3.6029    0.0000 C   0  0  0  0  0  0  0  0  0  0  0  0
   12.1259    3.0929    0.0000 C   0  0  0  0  0  0  0  0  0  0  0  0
    9.9977   -2.6929    0.0000 H   0  0  0  0  0  0  0  0  0  0  0  0
   10.8579   -3.2029    0.0000 H   0  0  0  0  0  0  0  0  0  0  0  0
    4.5981   -3.1912    0.0000 H   0  0  0  0  0  0  0  0  0  0  0  0
    4.2690   -3.0012    0.0000 H   0  0  0  0  0  0  0  0  0  0  0  0
    8.9355   -1.6805    0.0000 H   0  0  0  0  0  0  0  0  0  0  0  0
    6.0010   -3.0012    0.0000 H   0  0  0  0  0  0  0  0  0  0  0  0
   11.7368   -2.0930    0.0000 H   0  0  0  0  0  0  0  0  0  0  0  0
    4.2690   -0.7612    0.0000 H   0  0  0  0  0  0  0  0  0  0  0  0
    9.8144   -0.5706    0.0000 H   0  0  0  0  0  0  0  0  0  0  0  0
    6.0010   -0.7612    0.0000 H   0  0  0  0  0  0  0  0  0  0  0  0
   11.6525   -3.3770    0.0000 H   0  0  0  0  0  0  0  0  0  0  0  0
   12.4495   -3.3862    0.0000 H   0  0  0  0  0  0  0  0  0  0  0  0
    3.8015   -0.4062    0.0000 H   0  0  0  0  0  0  0  0  0  0  0  0
    3.0044   -0.4062    0.0000 H   0  0  0  0  0  0  0  0  0  0  0  0
    8.5855   -3.4866    0.0000 H   0  0  0  0  0  0  0  0  0  0  0  0
   10.8463   -4.2028    0.0000 H   0  0  0  0  0  0  0  0  0  0  0  0
    4.5981   -4.1912    0.0000 H   0  0  0  0  0  0  0  0  0  0  0  0
    3.4030   -3.5012    0.0000 H   0  0  0  0  0  0  0  0  0  0  0  0
    8.0753   -1.1706    0.0000 H   0  0  0  0  0  0  0  0  0  0  0  0
    6.8671   -3.5012    0.0000 H   0  0  0  0  0  0  0  0  0  0  0  0
    8.6201   -0.4868    0.0000 H   0  0  0  0  0  0  0  0  0  0  0  0
   13.4616   -2.7329    0.0000 H   0  0  0  0  0  0  0  0  0  0  0  0
    2.0000   -1.0712    0.0000 H   0  0  0  0  0  0  0  0  0  0  0  0
    5.4277    0.3373    0.0000 H   0  0  0  0  0  0  0  0  0  0  0  0
    6.9053    2.8079    0.0000 H   0  0  0  0  0  0  0  0  0  0  0  0
   11.2354    0.9830    0.0000 H   0  0  0  0  0  0  0  0  0  0  0  0
    9.8606    3.4291    0.0000 H   0  0  0  0  0  0  0  0  0  0  0  0
    5.1304    2.8179    0.0000 H   0  0  0  0  0  0  0  0  0  0  0  0
   11.2729    4.2228    0.0000 H   0  0  0  0  0  0  0  0  0  0  0  0
   13.5150    1.8868    0.0000 H   0  0  0  0  0  0  0  0  0  0  0  0
   13.0048    4.2028    0.0000 H   0  0  0  0  0  0  0  0  0  0  0  0
  2 24  1  0  0  0  0
  2 26  1  0  0  0  0
  3 25  1  0  0  0  0
  3 27  1  0  0  0  0
 26  4  1  6  0  0  0
  4 31  1  0  0  0  0
 27  5  1  1  0  0  0
  5 30  1  0  0  0  0
 18  6  1  6  0  0  0
  6 59  1  0  0  0  0
 19  7  1  1  0  0  0
  7 60  1  0  0  0  0
 20  8  1  1  0  0  0
  8 61  1  0  0  0  0
 21  9  1  6  0  0  0
  9 62  1  0  0  0  0
 22 10  1  1  0  0  0
 10 63  1  0  0  0  0
 23 11  1  6  0  0  0
 11 64  1  0  0  0  0
 12 28  1  0  0  0  0
 12 66  1  0  0  0  0
 13 29  1  0  0  0  0
 13 67  1  0  0  0  0
 14 34  1  0  0  0  0
 14 35  2  0  0  0  0
 15 38  1  0  0  0  0
 15 72  1  0  0  0  0
 16 42  1  0  0  0  0
 16 74  1  0  0  0  0
 17 44  1  0  0  0  0
 17 75  1  0  0  0  0
 18 19  1  0  0  0  0
 18 22  1  0  0  0  0
 18 45  1  0  0  0  0
 19 24  1  0  0  0  0
 19 46  1  0  0  0  0
 20 21  1  0  0  0  0
 20 23  1  0  0  0  0
 20 47  1  0  0  0  0
 21 25  1  0  0  0  0
 21 48  1  0  0  0  0
 22 26  1  0  0  0  0
 22 49  1  0  0  0  0
 23 27  1  0  0  0  0
 23 50  1  0  0  0  0
 24 28  1  6  0  0  0
 24 51  1  0  0  0  0
 25 29  1  1  0  0  0
 25 52  1  0  0  0  0
 26 53  1  0  0  0  0
 27 54  1  0  0  0  0
 28 55  1  0  0  0  0
 28 56  1  0  0  0  0
 29 57  1  0  0  0  0
 29 58  1  0  0  0  0
 30 32  1  0  0  0  0
 30 36  2  0  0  0  0
 31 33  1  0  0  0  0
 31 34  2  0  0  0  0
 32 33  2  0  0  0  0
 32 35  1  0  0  0  0
 33 65  1  0  0  0  0
 34 39  1  0  0  0  0
 35 37  1  0  0  0  0
 36 38  1  0  0  0  0
 36 68  1  0  0  0  0
 37 38  2  0  0  0  0
 37 69  1  0  0  0  0
 39 40  2  0  0  0  0
 39 41  1  0  0  0  0
 40 42  1  0  0  0  0
 40 70  1  0  0  0  0
 41 43  2  0  0  0  0
 41 71  1  0  0  0  0
 42 44  2  0  0  0  0
 43 44  1  0  0  0  0
 43 73  1  0  0  0  0
M  CHG  2   1  -1  14   1
M  END
> <PUBCHEM_COMPOUND_CID>
164999

> <PUBCHEM_COMPOUND_CANONICALIZED>
1

> <PUBCHEM_CACTVS_COMPLEXITY>
899

> <PUBCHEM_CACTVS_HBOND_ACCEPTOR>
16

> <PUBCHEM_CACTVS_HBOND_DONOR>
11

> <PUBCHEM_CACTVS_ROTATABLE_BOND>
7

> <PUBCHEM_CACTVS_SUBSKEYS>
AAADceB4PgAEAAAAAAAAAAAAAAAAAAAAAAA0aJECAAAAAACR9AAAGgAACAAADBSwmAMwDsAABkCIAqBSAAICCAAkIAAIiAFGiMgdNzaGNR6ieWOl4BUPuYfK7PzOIAABCAAIQABAAAIQABCAAAAAAAAAAA==

> <PUBCHEM_IUPAC_OPENEYE_NAME>
(2S,3R,4S,5S,6R)-2-[2-(3,4-dihydroxyphenyl)-7-hydroxy-3-[(2S,3R,4S,5S,6R)-3,4,5-trihydroxy-6-(hydroxymethyl)tetrahydropyran-2-yl]oxy-chromenylium-5-yl]oxy-6-(hydroxymethyl)tetrahydropyran-3,4,5-triol chloride

> <PUBCHEM_IUPAC_CAS_NAME>
(2S,3R,4S,5S,6R)-2-[[2-(3,4-dihydroxyphenyl)-7-hydroxy-3-[[(2S,3R,4S,5S,6R)-3,4,5-trihydroxy-6-(hydroxymethyl)-2-oxanyl]oxy]-1-benzopyrylium-5-yl]oxy]-6-(hydroxymethyl)oxane-3,4,5-triol chloride

> <PUBCHEM_IUPAC_NAME_MARKUP>
(2<I>S</I>,3<I>R</I>,4<I>S</I>,5<I>S</I>,6<I>R</I>)-2-[2-(3,4-dihydroxyphenyl)-7-hydroxy-3-[(2<I>S</I>,3<I>R</I>,4<I>S</I>,5<I>S</I>,6<I>R</I>)-3,4,5-trihydroxy-6-(hydroxymethyl)oxan-2-yl]oxychromenylium-5-yl]oxy-6-(hydroxymethyl)oxane-3,4,5-triol chloride

> <PUBCHEM_IUPAC_NAME>
(2S,3R,4S,5S,6R)-2-[2-(3,4-dihydroxyphenyl)-7-hydroxy-3-[(2S,3R,4S,5S,6R)-3,4,5-trihydroxy-6-(hydroxymethyl)oxan-2-yl]oxychromenylium-5-yl]oxy-6-(hydroxymethyl)oxane-3,4,5-triol chloride

> <PUBCHEM_IUPAC_SYSTEMATIC_NAME>
(2S,3R,4S,5S,6R)-2-[2-[3,4-bis(oxidanyl)phenyl]-3-[(2S,3R,4S,5S,6R)-6-(hydroxymethyl)-3,4,5-tris(oxidanyl)oxan-2-yl]oxy-7-oxidanyl-chromenylium-5-yl]oxy-6-(hydroxymethyl)oxane-3,4,5-triol chloride

> <PUBCHEM_IUPAC_TRADITIONAL_NAME>
(2S,3R,4S,5S,6R)-2-[[2-(3,4-dihydroxyphenyl)-7-hydroxy-3-[(2S,3R,4S,5S,6R)-3,4,5-trihydroxy-6-methylol-tetrahydropyran-2-yl]oxy-1-benzopyrylium-5-yl]oxy]-6-methylol-tetrahydropyran-3,4,5-triol chloride

> <PUBCHEM_IUPAC_INCHI>
InChI=1S/C27H30O16.ClH/c28-7-17-19(33)21(35)23(37)26(42-17)40-15-5-10(30)4-14-11(15)6-16(25(39-14)9-1-2-12(31)13(32)3-9)41-27-24(38)22(36)20(34)18(8-29)43-27;/h1-6,17-24,26-29,33-38H,7-8H2,(H2-,30,31,32);1H/t17-,18-,19-,20-,21+,22+,23-,24-,26-,27-;/m1./s1

> <PUBCHEM_IUPAC_INCHIKEY>
QDVZZZBBPRFPDG-DHJOXOLYSA-N

> <PUBCHEM_EXACT_MASS>
646.1300626

> <PUBCHEM_MOLECULAR_FORMULA>
C27H31ClO16

> <PUBCHEM_MOLECULAR_WEIGHT>
647.0

> <PUBCHEM_SMILES>
C1=CC(=C(C=C1C2=C(C=C3C(=CC(=CC3=[O+]2)O)O[C@H]4[C@@H]([C@H]([C@@H]([C@H](O4)CO)O)O)O)O[C@H]5[C@@H]([C@H]([C@@H]([C@H](O5)CO)O)O)O)O)O.[Cl-]

> <PUBCHEM_CONNECTIVITY_SMILES>
C1=CC(=C(C=C1C2=C(C=C3C(=CC(=CC3=[O+]2)O)OC4C(C(C(C(O4)CO)O)O)O)OC5C(C(C(C(O5)CO)O)O)O)O)O.[Cl-]

> <PUBCHEM_CACTVS_TPSA>
260

> <PUBCHEM_MONOISOTOPIC_WEIGHT>
646.1300626

> <PUBCHEM_TOTAL_CHARGE>
0

> <PUBCHEM_HEAVY_ATOM_COUNT>
44

> <PUBCHEM_ATOM_DEF_STEREO_COUNT>
10

> <PUBCHEM_ATOM_UDEF_STEREO_COUNT>
0

> <PUBCHEM_BOND_DEF_STEREO_COUNT>
0

> <PUBCHEM_BOND_UDEF_STEREO_COUNT>
0

> <PUBCHEM_ISOTOPIC_ATOM_COUNT>
0

> <PUBCHEM_COMPONENT_COUNT>
2

> <PUBCHEM_CACTVS_TAUTO_COUNT>
-1

> <PUBCHEM_COORDINATE_TYPE>
1
5
255

> <PUBCHEM_BONDANNOTATIONS>
22  10  5
23  11  6
14  34  8
14  35  8
24  28  6
25  29  5
30  32  8
30  36  8
31  33  8
31  34  8
32  33  8
32  35  8
35  37  8
36  38  8
37  38  8
39  40  8
39  41  8
26  4  6
40  42  8
41  43  8
42  44  8
43  44  8
27  5  5
18  6  6
19  7  5
20  8  5
21  9  6

$$$$
