44144428
  -OEChem-01202613592D

100105  0     1  0  0  0  0  0999 V2000
   12.9292    1.5390    0.0000 O   0  0  0  0  0  0  0  0  0  0  0  0
   11.1972    2.5390    0.0000 O   0  0  0  0  0  0  0  0  0  0  0  0
   14.6613    2.5390    0.0000 O   0  0  0  0  0  0  0  0  0  0  0  0
   12.4292    5.4050    0.0000 O   0  0  0  0  0  0  0  0  0  0  0  0
   14.4292    5.4050    0.0000 O   0  0  0  0  0  0  0  0  0  0  0  0
   12.9292    6.2710    0.0000 O   0  0  0  0  0  0  0  0  0  0  0  0
   11.1972    1.5390    0.0000 O   0  0  0  0  0  0  0  0  0  0  0  0
   10.3312    4.0390    0.0000 O   0  0  0  0  0  0  0  0  0  0  0  0
   15.5273    4.0390    0.0000 O   0  0  0  0  0  0  0  0  0  0  0  0
   10.3312   -1.9610    0.0000 O   0  0  0  0  0  0  0  0  0  0  0  0
   13.7953   -1.9610    0.0000 O   0  0  0  0  0  0  0  0  0  0  0  0
    6.8671    3.0390    0.0000 O   0  0  0  0  0  0  0  0  0  0  0  0
    8.5991    0.0390    0.0000 O   0  0  0  0  0  0  0  0  0  0  0  0
   17.2594    0.0390    0.0000 O   0  0  0  0  0  0  0  0  0  0  0  0
   18.9914    3.0390    0.0000 O   0  0  0  0  0  0  0  0  0  0  0  0
   12.0632   -2.9610    0.0000 O   0  0  0  0  0  0  0  0  0  0  0  0
    6.8671    1.0390    0.0000 O   0  0  0  0  0  0  0  0  0  0  0  0
   18.9914    1.0390    0.0000 O   0  0  0  0  0  0  0  0  0  0  0  0
   11.1972   -3.4610    0.0000 O   0  0  0  0  0  0  0  0  0  0  0  0
    6.8671   -2.9610    0.0000 O   0  0  0  0  0  0  0  0  0  0  0  0
    8.5991   -5.9610    0.0000 O   0  0  0  0  0  0  0  0  0  0  0  0
    6.8671   -4.9610    0.0000 O   0  0  0  0  0  0  0  0  0  0  0  0
    6.0010   -4.4610    0.0000 O   0  0  0  0  0  0  0  0  0  0  0  0
    2.5369   -3.4610    0.0000 O   0  0  0  0  0  0  0  0  0  0  0  0
    4.2690   -0.4610    0.0000 O   0  0  0  0  0  0  0  0  0  0  0  0
    2.5369   -1.4610    0.0000 O   0  0  0  0  0  0  0  0  0  0  0  0
   12.9292    4.5390    0.0000 C   0  0  0  0  0  0  0  0  0  0  0  0
   12.9292    2.5390    0.0000 C   0  0  0  0  0  0  0  0  0  0  0  0
   12.0632    3.0390    0.0000 C   0  0  3  0  0  0  0  0  0  0  0  0
   13.7953    3.0390    0.0000 C   0  0  1  0  0  0  0  0  0  0  0  0
   12.0632    4.0390    0.0000 C   0  0  0  0  0  0  0  0  0  0  0  0
   13.7953    4.0390    0.0000 C   0  0  0  0  0  0  0  0  0  0  0  0
   13.4292    5.4050    0.0000 C   0  0  0  0  0  0  0  0  0  0  0  0
   12.0632    1.0390    0.0000 C   0  0  0  0  0  0  0  0  0  0  0  0
   10.3312    3.0390    0.0000 C   0  0  0  0  0  0  0  0  0  0  0  0
   15.5273    3.0390    0.0000 C   0  0  0  0  0  0  0  0  0  0  0  0
   12.0632    0.0390    0.0000 C   0  0  0  0  0  0  0  0  0  0  0  0
    9.4651    2.5390    0.0000 C   0  0  0  0  0  0  0  0  0  0  0  0
   16.3933    2.5390    0.0000 C   0  0  0  0  0  0  0  0  0  0  0  0
   11.1972   -0.4610    0.0000 C   0  0  0  0  0  0  0  0  0  0  0  0
   12.9292   -0.4610    0.0000 C   0  0  0  0  0  0  0  0  0  0  0  0
    9.4651    1.5390    0.0000 C   0  0  0  0  0  0  0  0  0  0  0  0
    8.5991    3.0390    0.0000 C   0  0  0  0  0  0  0  0  0  0  0  0
   17.2594    3.0390    0.0000 C   0  0  0  0  0  0  0  0  0  0  0  0
   16.3933    1.5390    0.0000 C   0  0  0  0  0  0  0  0  0  0  0  0
   11.1972   -1.4610    0.0000 C   0  0  0  0  0  0  0  0  0  0  0  0
   12.9292   -1.4610    0.0000 C   0  0  0  0  0  0  0  0  0  0  0  0
    7.7331    2.5390    0.0000 C   0  0  0  0  0  0  0  0  0  0  0  0
    8.5991    1.0390    0.0000 C   0  0  0  0  0  0  0  0  0  0  0  0
   17.2594    1.0390    0.0000 C   0  0  0  0  0  0  0  0  0  0  0  0
   18.1254    2.5390    0.0000 C   0  0  0  0  0  0  0  0  0  0  0  0
   12.0632   -1.9610    0.0000 C   0  0  0  0  0  0  0  0  0  0  0  0
    7.7331    1.5390    0.0000 C   0  0  0  0  0  0  0  0  0  0  0  0
   18.1254    1.5390    0.0000 C   0  0  0  0  0  0  0  0  0  0  0  0
   10.3312   -2.9610    0.0000 C   0  0  0  0  0  0  0  0  0  0  0  0
    9.4651   -3.4610    0.0000 C   0  0  0  0  0  0  0  0  0  0  0  0
    8.5991   -2.9610    0.0000 C   0  0  0  0  0  0  0  0  0  0  0  0
    9.4651   -4.4610    0.0000 C   0  0  0  0  0  0  0  0  0  0  0  0
    7.7331   -3.4610    0.0000 C   0  0  0  0  0  0  0  0  0  0  0  0
    8.5991   -4.9610    0.0000 C   0  0  0  0  0  0  0  0  0  0  0  0
    7.7331   -4.4610    0.0000 C   0  0  0  0  0  0  0  0  0  0  0  0
    6.0010   -3.4610    0.0000 C   0  0  0  0  0  0  0  0  0  0  0  0
    5.1350   -2.9610    0.0000 C   0  0  0  0  0  0  0  0  0  0  0  0
    5.1350   -1.9610    0.0000 C   0  0  0  0  0  0  0  0  0  0  0  0
    4.2690   -3.4610    0.0000 C   0  0  0  0  0  0  0  0  0  0  0  0
    3.4030   -2.9610    0.0000 C   0  0  0  0  0  0  0  0  0  0  0  0
    4.2690   -1.4610    0.0000 C   0  0  0  0  0  0  0  0  0  0  0  0
    3.4030   -1.9610    0.0000 C   0  0  0  0  0  0  0  0  0  0  0  0
   12.3923    2.2290    0.0000 H   0  0  0  0  0  0  0  0  0  0  0  0
   11.5263    3.3490    0.0000 H   0  0  0  0  0  0  0  0  0  0  0  0
   14.3322    3.3490    0.0000 H   0  0  0  0  0  0  0  0  0  0  0  0
   11.8512    4.6216    0.0000 H   0  0  0  0  0  0  0  0  0  0  0  0
   11.4526    3.9313    0.0000 H   0  0  0  0  0  0  0  0  0  0  0  0
   14.4058    3.9313    0.0000 H   0  0  0  0  0  0  0  0  0  0  0  0
   14.0073    4.6216    0.0000 H   0  0  0  0  0  0  0  0  0  0  0  0
   11.8092    5.4050    0.0000 H   0  0  0  0  0  0  0  0  0  0  0  0
   14.7392    5.9419    0.0000 H   0  0  0  0  0  0  0  0  0  0  0  0
   10.6603   -0.1510    0.0000 H   0  0  0  0  0  0  0  0  0  0  0  0
   13.4662   -0.1510    0.0000 H   0  0  0  0  0  0  0  0  0  0  0  0
   10.0021    1.2290    0.0000 H   0  0  0  0  0  0  0  0  0  0  0  0
    8.5991    3.6590    0.0000 H   0  0  0  0  0  0  0  0  0  0  0  0
   17.2594    3.6590    0.0000 H   0  0  0  0  0  0  0  0  0  0  0  0
   15.8564    1.2290    0.0000 H   0  0  0  0  0  0  0  0  0  0  0  0
   14.3322   -1.6510    0.0000 H   0  0  0  0  0  0  0  0  0  0  0  0
    6.8671    3.6590    0.0000 H   0  0  0  0  0  0  0  0  0  0  0  0
    8.0622   -0.2710    0.0000 H   0  0  0  0  0  0  0  0  0  0  0  0
   17.7963   -0.2710    0.0000 H   0  0  0  0  0  0  0  0  0  0  0  0
   18.9914    3.6590    0.0000 H   0  0  0  0  0  0  0  0  0  0  0  0
   12.6002   -3.2710    0.0000 H   0  0  0  0  0  0  0  0  0  0  0  0
    6.3301    1.3490    0.0000 H   0  0  0  0  0  0  0  0  0  0  0  0
   19.5284    1.3490    0.0000 H   0  0  0  0  0  0  0  0  0  0  0  0
    8.5991   -2.3410    0.0000 H   0  0  0  0  0  0  0  0  0  0  0  0
   10.0021   -4.7710    0.0000 H   0  0  0  0  0  0  0  0  0  0  0  0
    9.1361   -6.2710    0.0000 H   0  0  0  0  0  0  0  0  0  0  0  0
    6.8671   -5.5810    0.0000 H   0  0  0  0  0  0  0  0  0  0  0  0
    5.6720   -1.6510    0.0000 H   0  0  0  0  0  0  0  0  0  0  0  0
    4.2690   -4.0810    0.0000 H   0  0  0  0  0  0  0  0  0  0  0  0
    2.5369   -4.0810    0.0000 H   0  0  0  0  0  0  0  0  0  0  0  0
    3.7321   -0.1510    0.0000 H   0  0  0  0  0  0  0  0  0  0  0  0
    2.0000   -1.7710    0.0000 H   0  0  0  0  0  0  0  0  0  0  0  0
  1 28  1  0  0  0  0
  1 34  1  0  0  0  0
  2 29  1  0  0  0  0
  2 35  1  0  0  0  0
 30  3  1  1  0  0  0
  3 36  1  0  0  0  0
  4 27  1  0  0  0  0
  4 76  1  0  0  0  0
  5 33  1  0  0  0  0
  5 77  1  0  0  0  0
  6 33  2  0  0  0  0
  7 34  2  0  0  0  0
  8 35  2  0  0  0  0
  9 36  2  0  0  0  0
 10 46  1  0  0  0  0
 10 55  1  0  0  0  0
 11 47  1  0  0  0  0
 11 84  1  0  0  0  0
 12 48  1  0  0  0  0
 12 85  1  0  0  0  0
 13 49  1  0  0  0  0
 13 86  1  0  0  0  0
 14 50  1  0  0  0  0
 14 87  1  0  0  0  0
 15 51  1  0  0  0  0
 15 88  1  0  0  0  0
 16 52  1  0  0  0  0
 16 89  1  0  0  0  0
 17 53  1  0  0  0  0
 17 90  1  0  0  0  0
 18 54  1  0  0  0  0
 18 91  1  0  0  0  0
 19 55  2  0  0  0  0
 20 59  1  0  0  0  0
 20 62  1  0  0  0  0
 21 60  1  0  0  0  0
 21 94  1  0  0  0  0
 22 61  1  0  0  0  0
 22 95  1  0  0  0  0
 23 62  2  0  0  0  0
 24 66  1  0  0  0  0
 24 98  1  0  0  0  0
 25 67  1  0  0  0  0
 25 99  1  0  0  0  0
 26 68  1  0  0  0  0
 26100  1  0  0  0  0
 27 31  1  0  0  0  0
 27 32  1  0  0  0  0
 27 33  1  0  0  0  0
 28 29  1  0  0  0  0
 28 30  1  0  0  0  0
 28 69  1  0  0  0  0
 29 31  1  0  0  0  0
 29 70  1  0  0  0  0
 30 32  1  0  0  0  0
 30 71  1  0  0  0  0
 31 72  1  0  0  0  0
 31 73  1  0  0  0  0
 32 74  1  0  0  0  0
 32 75  1  0  0  0  0
 34 37  1  0  0  0  0
 35 38  1  0  0  0  0
 36 39  1  0  0  0  0
 37 40  1  0  0  0  0
 37 41  2  0  0  0  0
 38 42  2  0  0  0  0
 38 43  1  0  0  0  0
 39 44  2  0  0  0  0
 39 45  1  0  0  0  0
 40 46  2  0  0  0  0
 40 78  1  0  0  0  0
 41 47  1  0  0  0  0
 41 79  1  0  0  0  0
 42 49  1  0  0  0  0
 42 80  1  0  0  0  0
 43 48  2  0  0  0  0
 43 81  1  0  0  0  0
 44 51  1  0  0  0  0
 44 82  1  0  0  0  0
 45 50  2  0  0  0  0
 45 83  1  0  0  0  0
 46 52  1  0  0  0  0
 47 52  2  0  0  0  0
 48 53  1  0  0  0  0
 49 53  2  0  0  0  0
 50 54  1  0  0  0  0
 51 54  2  0  0  0  0
 55 56  1  0  0  0  0
 56 57  1  0  0  0  0
 56 58  2  0  0  0  0
 57 59  2  0  0  0  0
 57 92  1  0  0  0  0
 58 60  1  0  0  0  0
 58 93  1  0  0  0  0
 59 61  1  0  0  0  0
 60 61  2  0  0  0  0
 62 63  1  0  0  0  0
 63 64  2  0  0  0  0
 63 65  1  0  0  0  0
 64 67  1  0  0  0  0
 64 96  1  0  0  0  0
 65 66  2  0  0  0  0
 65 97  1  0  0  0  0
 66 68  1  0  0  0  0
 67 68  2  0  0  0  0
M  END
> <PUBCHEM_COMPOUND_CID>
44144428

> <PUBCHEM_COMPOUND_CANONICALIZED>
1

> <PUBCHEM_CACTVS_COMPLEXITY>
1740

> <PUBCHEM_CACTVS_HBOND_ACCEPTOR>
26

> <PUBCHEM_CACTVS_HBOND_DONOR>
15

> <PUBCHEM_CACTVS_ROTATABLE_BOND>
16

> <PUBCHEM_CACTVS_SUBSKEYS>
AAADcfB8PgAAAAAAAAAAAAAAAAAAAAAAAAAwYMGDAAAAAAABVAAAGgAACAAADFSgmAIwDoAABgCIAiDSCAICCAAkIAAAiAFGiMgNJzKGNRqCeyOlwBULuYfK7DzOIAABCAAAQABCAAIQAACAAAAAAAAAAA==

> <PUBCHEM_IUPAC_OPENEYE_NAME>
(3R)-4-[3-[3,4-dihydroxy-5-(3,4,5-trihydroxybenzoyl)oxy-benzoyl]oxy-4,5-dihydroxy-benzoyl]oxy-1-hydroxy-3,5-bis[(3,4,5-trihydroxybenzoyl)oxy]cyclohexanecarboxylic acid

> <PUBCHEM_IUPAC_CAS_NAME>
(3R)-4-[[3-[[3,4-dihydroxy-5-[oxo-(3,4,5-trihydroxyphenyl)methoxy]phenyl]-oxomethoxy]-4,5-dihydroxyphenyl]-oxomethoxy]-1-hydroxy-3,5-bis[oxo-(3,4,5-trihydroxyphenyl)methoxy]-1-cyclohexanecarboxylic acid

> <PUBCHEM_IUPAC_NAME_MARKUP>
(3<I>R</I>)-4-[3-[3,4-dihydroxy-5-(3,4,5-trihydroxybenzoyl)oxybenzoyl]oxy-4,5-dihydroxybenzoyl]oxy-1-hydroxy-3,5-bis[(3,4,5-trihydroxybenzoyl)oxy]cyclohexane-1-carboxylic acid

> <PUBCHEM_IUPAC_NAME>
(3R)-4-[3-[3,4-dihydroxy-5-(3,4,5-trihydroxybenzoyl)oxybenzoyl]oxy-4,5-dihydroxybenzoyl]oxy-1-hydroxy-3,5-bis[(3,4,5-trihydroxybenzoyl)oxy]cyclohexane-1-carboxylic acid

> <PUBCHEM_IUPAC_SYSTEMATIC_NAME>
(3R)-4-[3-[3,4-bis(oxidanyl)-5-[3,4,5-tris(oxidanyl)phenyl]carbonyloxy-phenyl]carbonyloxy-4,5-bis(oxidanyl)phenyl]carbonyloxy-1-oxidanyl-3,5-bis[[3,4,5-tris(oxidanyl)phenyl]carbonyloxy]cyclohexane-1-carboxylic acid

> <PUBCHEM_IUPAC_TRADITIONAL_NAME>
(3R)-3,5-digalloyloxy-4-[3-(3-galloyloxy-4,5-dihydroxy-benzoyl)oxy-4,5-dihydroxy-benzoyl]oxy-1-hydroxy-cyclohexanecarboxylic acid

> <PUBCHEM_IUPAC_INCHI>
InChI=1S/C42H32O26/c43-18-1-13(2-19(44)30(18)51)36(56)64-26-9-16(7-24(49)33(26)54)39(59)65-27-10-17(8-25(50)34(27)55)40(60)68-35-28(66-37(57)14-3-20(45)31(52)21(46)4-14)11-42(63,41(61)62)12-29(35)67-38(58)15-5-22(47)32(53)23(48)6-15/h1-10,28-29,35,43-55,63H,11-12H2,(H,61,62)/t28-,29?,35?,42?/m1/s1

> <PUBCHEM_IUPAC_INCHIKEY>
ABUKTBFSGLUCCG-YGKCYCOQSA-N

> <PUBCHEM_XLOGP3_AA>
2.5

> <PUBCHEM_EXACT_MASS>
952.11818112

> <PUBCHEM_MOLECULAR_FORMULA>
C42H32O26

> <PUBCHEM_MOLECULAR_WEIGHT>
952.7

> <PUBCHEM_SMILES>
C1[C@H](C(C(CC1(C(=O)O)O)OC(=O)C2=CC(=C(C(=C2)O)O)O)OC(=O)C3=CC(=C(C(=C3)OC(=O)C4=CC(=C(C(=C4)OC(=O)C5=CC(=C(C(=C5)O)O)O)O)O)O)O)OC(=O)C6=CC(=C(C(=C6)O)O)O

> <PUBCHEM_CONNECTIVITY_SMILES>
C1C(C(C(CC1(C(=O)O)O)OC(=O)C2=CC(=C(C(=C2)O)O)O)OC(=O)C3=CC(=C(C(=C3)OC(=O)C4=CC(=C(C(=C4)OC(=O)C5=CC(=C(C(=C5)O)O)O)O)O)O)O)OC(=O)C6=CC(=C(C(=C6)O)O)O

> <PUBCHEM_CACTVS_TPSA>
452

> <PUBCHEM_MONOISOTOPIC_WEIGHT>
952.11818112

> <PUBCHEM_TOTAL_CHARGE>
0

> <PUBCHEM_HEAVY_ATOM_COUNT>
68

> <PUBCHEM_ATOM_DEF_STEREO_COUNT>
1

> <PUBCHEM_ATOM_UDEF_STEREO_COUNT>
1

> <PUBCHEM_BOND_DEF_STEREO_COUNT>
0

> <PUBCHEM_BOND_UDEF_STEREO_COUNT>
0

> <PUBCHEM_ISOTOPIC_ATOM_COUNT>
0

> <PUBCHEM_COMPONENT_COUNT>
1

> <PUBCHEM_CACTVS_TAUTO_COUNT>
-1

> <PUBCHEM_COORDINATE_TYPE>
1
5
255

> <PUBCHEM_BONDANNOTATIONS>
29  2  3
30  3  5
37  40  8
37  41  8
38  42  8
38  43  8
39  44  8
39  45  8
40  46  8
41  47  8
42  49  8
43  48  8
44  51  8
45  50  8
46  52  8
47  52  8
48  53  8
49  53  8
50  54  8
51  54  8
56  57  8
56  58  8
57  59  8
58  60  8
59  61  8
60  61  8
63  64  8
63  65  8
64  67  8
65  66  8
66  68  8
67  68  8

$$$$
