23643936
  -OEChem-01202613592D

150151  0     1  0  0  0  0  0999 V2000
    7.7331   -4.8450    0.0000 O   0  0  0  0  0  0  0  0  0  0  0  0
    5.1350   -2.3450    0.0000 O   0  0  0  0  0  0  0  0  0  0  0  0
    6.0010   -3.8450    0.0000 O   0  0  0  0  0  0  0  0  0  0  0  0
    9.4651   -4.8450    0.0000 O   0  0  0  0  0  0  0  0  0  0  0  0
    6.0010   -6.8450    0.0000 O   0  0  0  0  0  0  0  0  0  0  0  0
    7.7331   -7.8450    0.0000 O   0  0  0  0  0  0  0  0  0  0  0  0
    9.4651   -6.8450    0.0000 O   0  0  0  0  0  0  0  0  0  0  0  0
    4.2690   -4.8450    0.0000 O   0  0  0  0  0  0  0  0  0  0  0  0
    2.5369   -3.8450    0.0000 O   0  0  0  0  0  0  0  0  0  0  0  0
    2.5369   -1.8450    0.0000 O   0  0  0  0  0  0  0  0  0  0  0  0
    5.1350   -0.3450    0.0000 O   0  0  0  0  0  0  0  0  0  0  0  0
   10.3312   -2.3450    0.0000 O   0  0  0  0  0  0  0  0  0  0  0  0
   12.0632   -3.3450    0.0000 O   0  0  0  0  0  0  0  0  0  0  0  0
   12.0632   -2.3450    0.0000 O   0  0  0  0  0  0  0  0  0  0  0  0
   12.9292   -4.8450    0.0000 O   0  0  0  0  0  0  0  0  0  0  0  0
    6.8671   -5.3450    0.0000 C   0  0  1  0  0  0  0  0  0  0  0  0
    6.8671   -6.3450    0.0000 C   0  0  1  0  0  0  0  0  0  0  0  0
    7.7331   -6.8450    0.0000 C   0  0  1  0  0  0  0  0  0  0  0  0
    8.5991   -6.3450    0.0000 C   0  0  2  0  0  0  0  0  0  0  0  0
    4.2690   -3.8450    0.0000 C   0  0  1  0  0  0  0  0  0  0  0  0
    5.1350   -3.3450    0.0000 C   0  0  2  0  0  0  0  0  0  0  0  0
    3.4030   -3.3450    0.0000 C   0  0  2  0  0  0  0  0  0  0  0  0
    8.5991   -5.3450    0.0000 C   0  0  1  0  0  0  0  0  0  0  0  0
    3.4030   -2.3450    0.0000 C   0  0  2  0  0  0  0  0  0  0  0  0
    4.2690   -1.8450    0.0000 C   0  0  1  0  0  0  0  0  0  0  0  0
    6.0010   -4.8450    0.0000 C   0  0  0  0  0  0  0  0  0  0  0  0
    4.2690   -0.8450    0.0000 C   0  0  0  0  0  0  0  0  0  0  0  0
    9.4651   -3.8450    0.0000 C   0  0  0  0  0  0  0  0  0  0  0  0
   10.3312   -3.3450    0.0000 C   0  0  1  0  0  0  0  0  0  0  0  0
   11.1972   -3.8450    0.0000 C   0  0  0  0  0  0  0  0  0  0  0  0
   19.8574   -3.8450    0.0000 C   0  0  0  0  0  0  0  0  0  0  0  0
   18.9914   -3.3450    0.0000 C   0  0  0  0  0  0  0  0  0  0  0  0
   20.7235   -3.3450    0.0000 C   0  0  0  0  0  0  0  0  0  0  0  0
   18.1254   -3.8450    0.0000 C   0  0  0  0  0  0  0  0  0  0  0  0
   21.5895   -3.8450    0.0000 C   0  0  0  0  0  0  0  0  0  0  0  0
   17.2594   -3.3450    0.0000 C   0  0  0  0  0  0  0  0  0  0  0  0
   22.4555   -3.3450    0.0000 C   0  0  0  0  0  0  0  0  0  0  0  0
   16.3933   -3.8450    0.0000 C   0  0  0  0  0  0  0  0  0  0  0  0
   11.1972   -1.8450    0.0000 C   0  0  0  0  0  0  0  0  0  0  0  0
   23.3215   -3.8450    0.0000 C   0  0  0  0  0  0  0  0  0  0  0  0
   11.1972   -0.8450    0.0000 C   0  0  0  0  0  0  0  0  0  0  0  0
   15.5273   -3.3450    0.0000 C   0  0  0  0  0  0  0  0  0  0  0  0
   12.0632   -0.3450    0.0000 C   0  0  0  0  0  0  0  0  0  0  0  0
   12.0632    0.6550    0.0000 C   0  0  0  0  0  0  0  0  0  0  0  0
   12.9292    1.1550    0.0000 C   0  0  0  0  0  0  0  0  0  0  0  0
   12.9292    2.1550    0.0000 C   0  0  0  0  0  0  0  0  0  0  0  0
   13.7953    2.6550    0.0000 C   0  0  0  0  0  0  0  0  0  0  0  0
   14.6613   -3.8450    0.0000 C   0  0  0  0  0  0  0  0  0  0  0  0
   13.7953    3.6550    0.0000 C   0  0  0  0  0  0  0  0  0  0  0  0
   24.1876   -3.3450    0.0000 C   0  0  0  0  0  0  0  0  0  0  0  0
   14.6613    4.1550    0.0000 C   0  0  0  0  0  0  0  0  0  0  0  0
   13.7953   -3.3450    0.0000 C   0  0  0  0  0  0  0  0  0  0  0  0
   25.0536   -3.8450    0.0000 C   0  0  0  0  0  0  0  0  0  0  0  0
   12.9292   -3.8450    0.0000 C   0  0  0  0  0  0  0  0  0  0  0  0
   14.6613    5.1550    0.0000 C   0  0  0  0  0  0  0  0  0  0  0  0
   15.5273    5.6550    0.0000 C   0  0  0  0  0  0  0  0  0  0  0  0
   25.9196   -3.3450    0.0000 C   0  0  0  0  0  0  0  0  0  0  0  0
   15.5273    6.6550    0.0000 C   0  0  0  0  0  0  0  0  0  0  0  0
   26.7856   -3.8450    0.0000 C   0  0  0  0  0  0  0  0  0  0  0  0
   16.3933    7.1550    0.0000 C   0  0  0  0  0  0  0  0  0  0  0  0
   27.6517   -3.3450    0.0000 C   0  0  0  0  0  0  0  0  0  0  0  0
   16.3933    8.1550    0.0000 C   0  0  0  0  0  0  0  0  0  0  0  0
    6.8671   -4.7250    0.0000 H   0  0  0  0  0  0  0  0  0  0  0  0
    6.8671   -6.9650    0.0000 H   0  0  0  0  0  0  0  0  0  0  0  0
    7.1962   -7.1550    0.0000 H   0  0  0  0  0  0  0  0  0  0  0  0
    8.5991   -6.9650    0.0000 H   0  0  0  0  0  0  0  0  0  0  0  0
    3.7321   -4.1550    0.0000 H   0  0  0  0  0  0  0  0  0  0  0  0
    5.1350   -3.9650    0.0000 H   0  0  0  0  0  0  0  0  0  0  0  0
    2.8660   -3.0350    0.0000 H   0  0  0  0  0  0  0  0  0  0  0  0
    8.5991   -4.7250    0.0000 H   0  0  0  0  0  0  0  0  0  0  0  0
    3.4030   -1.7250    0.0000 H   0  0  0  0  0  0  0  0  0  0  0  0
    4.8059   -1.5350    0.0000 H   0  0  0  0  0  0  0  0  0  0  0  0
    5.3905   -4.7373    0.0000 H   0  0  0  0  0  0  0  0  0  0  0  0
    5.7890   -5.4276    0.0000 H   0  0  0  0  0  0  0  0  0  0  0  0
    4.0569   -0.2624    0.0000 H   0  0  0  0  0  0  0  0  0  0  0  0
    3.6584   -0.9527    0.0000 H   0  0  0  0  0  0  0  0  0  0  0  0
    5.4641   -6.5350    0.0000 H   0  0  0  0  0  0  0  0  0  0  0  0
    7.1962   -8.1550    0.0000 H   0  0  0  0  0  0  0  0  0  0  0  0
   10.0021   -6.5350    0.0000 H   0  0  0  0  0  0  0  0  0  0  0  0
    3.7321   -5.1550    0.0000 H   0  0  0  0  0  0  0  0  0  0  0  0
    2.0000   -3.5350    0.0000 H   0  0  0  0  0  0  0  0  0  0  0  0
    2.5369   -1.2250    0.0000 H   0  0  0  0  0  0  0  0  0  0  0  0
    9.2531   -3.2624    0.0000 H   0  0  0  0  0  0  0  0  0  0  0  0
    8.8546   -3.9527    0.0000 H   0  0  0  0  0  0  0  0  0  0  0  0
    9.7942   -3.0350    0.0000 H   0  0  0  0  0  0  0  0  0  0  0  0
    5.1350    0.2750    0.0000 H   0  0  0  0  0  0  0  0  0  0  0  0
   10.7987   -4.3200    0.0000 H   0  0  0  0  0  0  0  0  0  0  0  0
   11.5957   -4.3200    0.0000 H   0  0  0  0  0  0  0  0  0  0  0  0
   19.4589   -4.3200    0.0000 H   0  0  0  0  0  0  0  0  0  0  0  0
   20.2560   -4.3200    0.0000 H   0  0  0  0  0  0  0  0  0  0  0  0
   19.3899   -2.8701    0.0000 H   0  0  0  0  0  0  0  0  0  0  0  0
   18.5929   -2.8701    0.0000 H   0  0  0  0  0  0  0  0  0  0  0  0
   21.1220   -2.8701    0.0000 H   0  0  0  0  0  0  0  0  0  0  0  0
   20.3249   -2.8701    0.0000 H   0  0  0  0  0  0  0  0  0  0  0  0
   17.7269   -4.3200    0.0000 H   0  0  0  0  0  0  0  0  0  0  0  0
   18.5239   -4.3200    0.0000 H   0  0  0  0  0  0  0  0  0  0  0  0
   21.1910   -4.3200    0.0000 H   0  0  0  0  0  0  0  0  0  0  0  0
   21.9880   -4.3200    0.0000 H   0  0  0  0  0  0  0  0  0  0  0  0
   17.6579   -2.8701    0.0000 H   0  0  0  0  0  0  0  0  0  0  0  0
   16.8608   -2.8701    0.0000 H   0  0  0  0  0  0  0  0  0  0  0  0
   22.8540   -2.8701    0.0000 H   0  0  0  0  0  0  0  0  0  0  0  0
   22.0570   -2.8701    0.0000 H   0  0  0  0  0  0  0  0  0  0  0  0
   15.9948   -4.3200    0.0000 H   0  0  0  0  0  0  0  0  0  0  0  0
   16.7919   -4.3200    0.0000 H   0  0  0  0  0  0  0  0  0  0  0  0
   22.9230   -4.3200    0.0000 H   0  0  0  0  0  0  0  0  0  0  0  0
   23.7201   -4.3200    0.0000 H   0  0  0  0  0  0  0  0  0  0  0  0
   15.9258   -2.8701    0.0000 H   0  0  0  0  0  0  0  0  0  0  0  0
   15.1288   -2.8701    0.0000 H   0  0  0  0  0  0  0  0  0  0  0  0
   10.9851   -0.2624    0.0000 H   0  0  0  0  0  0  0  0  0  0  0  0
   10.5866   -0.9527    0.0000 H   0  0  0  0  0  0  0  0  0  0  0  0
   11.8512    1.2376    0.0000 H   0  0  0  0  0  0  0  0  0  0  0  0
   11.4526    0.5473    0.0000 H   0  0  0  0  0  0  0  0  0  0  0  0
   12.2753   -0.9276    0.0000 H   0  0  0  0  0  0  0  0  0  0  0  0
   12.6738   -0.2373    0.0000 H   0  0  0  0  0  0  0  0  0  0  0  0
   13.1413    0.5724    0.0000 H   0  0  0  0  0  0  0  0  0  0  0  0
   13.5398    1.2627    0.0000 H   0  0  0  0  0  0  0  0  0  0  0  0
   12.7172    2.7376    0.0000 H   0  0  0  0  0  0  0  0  0  0  0  0
   12.3187    2.0473    0.0000 H   0  0  0  0  0  0  0  0  0  0  0  0
   14.0073    2.0724    0.0000 H   0  0  0  0  0  0  0  0  0  0  0  0
   14.4058    2.7627    0.0000 H   0  0  0  0  0  0  0  0  0  0  0  0
   14.2628   -4.3200    0.0000 H   0  0  0  0  0  0  0  0  0  0  0  0
   15.0598   -4.3200    0.0000 H   0  0  0  0  0  0  0  0  0  0  0  0
   13.5832    4.2376    0.0000 H   0  0  0  0  0  0  0  0  0  0  0  0
   13.1847    3.5473    0.0000 H   0  0  0  0  0  0  0  0  0  0  0  0
   24.5861   -2.8701    0.0000 H   0  0  0  0  0  0  0  0  0  0  0  0
   23.7890   -2.8701    0.0000 H   0  0  0  0  0  0  0  0  0  0  0  0
   14.8733    3.5724    0.0000 H   0  0  0  0  0  0  0  0  0  0  0  0
   15.2719    4.2627    0.0000 H   0  0  0  0  0  0  0  0  0  0  0  0
   14.1938   -2.8701    0.0000 H   0  0  0  0  0  0  0  0  0  0  0  0
   13.3967   -2.8701    0.0000 H   0  0  0  0  0  0  0  0  0  0  0  0
   24.6551   -4.3200    0.0000 H   0  0  0  0  0  0  0  0  0  0  0  0
   25.4521   -4.3200    0.0000 H   0  0  0  0  0  0  0  0  0  0  0  0
   14.4492    5.7376    0.0000 H   0  0  0  0  0  0  0  0  0  0  0  0
   14.0507    5.0473    0.0000 H   0  0  0  0  0  0  0  0  0  0  0  0
   15.7394    5.0724    0.0000 H   0  0  0  0  0  0  0  0  0  0  0  0
   16.1379    5.7627    0.0000 H   0  0  0  0  0  0  0  0  0  0  0  0
   26.3182   -2.8701    0.0000 H   0  0  0  0  0  0  0  0  0  0  0  0
   25.5211   -2.8701    0.0000 H   0  0  0  0  0  0  0  0  0  0  0  0
   15.3153    7.2376    0.0000 H   0  0  0  0  0  0  0  0  0  0  0  0
   14.9167    6.5473    0.0000 H   0  0  0  0  0  0  0  0  0  0  0  0
   26.3871   -4.3200    0.0000 H   0  0  0  0  0  0  0  0  0  0  0  0
   27.1842   -4.3200    0.0000 H   0  0  0  0  0  0  0  0  0  0  0  0
   16.6054    6.5724    0.0000 H   0  0  0  0  0  0  0  0  0  0  0  0
   17.0039    7.2627    0.0000 H   0  0  0  0  0  0  0  0  0  0  0  0
   27.9617   -3.8819    0.0000 H   0  0  0  0  0  0  0  0  0  0  0  0
   28.1886   -3.0350    0.0000 H   0  0  0  0  0  0  0  0  0  0  0  0
   27.3417   -2.8081    0.0000 H   0  0  0  0  0  0  0  0  0  0  0  0
   17.0133    8.1550    0.0000 H   0  0  0  0  0  0  0  0  0  0  0  0
   16.3933    8.7750    0.0000 H   0  0  0  0  0  0  0  0  0  0  0  0
   15.7733    8.1550    0.0000 H   0  0  0  0  0  0  0  0  0  0  0  0
  1 16  1  0  0  0  0
  1 23  1  0  0  0  0
  2 21  1  0  0  0  0
  2 25  1  0  0  0  0
 21  3  1  6  0  0  0
  3 26  1  0  0  0  0
 23  4  1  1  0  0  0
  4 28  1  0  0  0  0
 17  5  1  1  0  0  0
  5 77  1  0  0  0  0
 18  6  1  1  0  0  0
  6 78  1  0  0  0  0
 19  7  1  6  0  0  0
  7 79  1  0  0  0  0
 20  8  1  6  0  0  0
  8 80  1  0  0  0  0
 22  9  1  1  0  0  0
  9 81  1  0  0  0  0
 24 10  1  1  0  0  0
 10 82  1  0  0  0  0
 11 27  1  0  0  0  0
 11 86  1  0  0  0  0
 29 12  1  6  0  0  0
 12 39  1  0  0  0  0
 13 30  1  0  0  0  0
 13 54  1  0  0  0  0
 14 39  2  0  0  0  0
 15 54  2  0  0  0  0
 16 17  1  0  0  0  0
 16 26  1  1  0  0  0
 16 63  1  0  0  0  0
 17 18  1  0  0  0  0
 17 64  1  0  0  0  0
 18 19  1  0  0  0  0
 18 65  1  0  0  0  0
 19 23  1  0  0  0  0
 19 66  1  0  0  0  0
 20 21  1  0  0  0  0
 20 22  1  0  0  0  0
 20 67  1  0  0  0  0
 21 68  1  0  0  0  0
 22 24  1  0  0  0  0
 22 69  1  0  0  0  0
 23 70  1  0  0  0  0
 24 25  1  0  0  0  0
 24 71  1  0  0  0  0
 25 27  1  1  0  0  0
 25 72  1  0  0  0  0
 26 73  1  0  0  0  0
 26 74  1  0  0  0  0
 27 75  1  0  0  0  0
 27 76  1  0  0  0  0
 28 29  1  0  0  0  0
 28 83  1  0  0  0  0
 28 84  1  0  0  0  0
 29 30  1  0  0  0  0
 29 85  1  0  0  0  0
 30 87  1  0  0  0  0
 30 88  1  0  0  0  0
 31 32  1  0  0  0  0
 31 33  1  0  0  0  0
 31 89  1  0  0  0  0
 31 90  1  0  0  0  0
 32 34  1  0  0  0  0
 32 91  1  0  0  0  0
 32 92  1  0  0  0  0
 33 35  1  0  0  0  0
 33 93  1  0  0  0  0
 33 94  1  0  0  0  0
 34 36  1  0  0  0  0
 34 95  1  0  0  0  0
 34 96  1  0  0  0  0
 35 37  1  0  0  0  0
 35 97  1  0  0  0  0
 35 98  1  0  0  0  0
 36 38  1  0  0  0  0
 36 99  1  0  0  0  0
 36100  1  0  0  0  0
 37 40  1  0  0  0  0
 37101  1  0  0  0  0
 37102  1  0  0  0  0
 38 42  1  0  0  0  0
 38103  1  0  0  0  0
 38104  1  0  0  0  0
 39 41  1  0  0  0  0
 40 50  1  0  0  0  0
 40105  1  0  0  0  0
 40106  1  0  0  0  0
 41 43  1  0  0  0  0
 41109  1  0  0  0  0
 41110  1  0  0  0  0
 42 48  1  0  0  0  0
 42107  1  0  0  0  0
 42108  1  0  0  0  0
 43 44  1  0  0  0  0
 43113  1  0  0  0  0
 43114  1  0  0  0  0
 44 45  1  0  0  0  0
 44111  1  0  0  0  0
 44112  1  0  0  0  0
 45 46  1  0  0  0  0
 45115  1  0  0  0  0
 45116  1  0  0  0  0
 46 47  1  0  0  0  0
 46117  1  0  0  0  0
 46118  1  0  0  0  0
 47 49  1  0  0  0  0
 47119  1  0  0  0  0
 47120  1  0  0  0  0
 48 52  1  0  0  0  0
 48121  1  0  0  0  0
 48122  1  0  0  0  0
 49 51  1  0  0  0  0
 49123  1  0  0  0  0
 49124  1  0  0  0  0
 50 53  1  0  0  0  0
 50125  1  0  0  0  0
 50126  1  0  0  0  0
 51 55  1  0  0  0  0
 51127  1  0  0  0  0
 51128  1  0  0  0  0
 52 54  1  0  0  0  0
 52129  1  0  0  0  0
 52130  1  0  0  0  0
 53 57  1  0  0  0  0
 53131  1  0  0  0  0
 53132  1  0  0  0  0
 55 56  1  0  0  0  0
 55133  1  0  0  0  0
 55134  1  0  0  0  0
 56 58  1  0  0  0  0
 56135  1  0  0  0  0
 56136  1  0  0  0  0
 57 59  1  0  0  0  0
 57137  1  0  0  0  0
 57138  1  0  0  0  0
 58 60  1  0  0  0  0
 58139  1  0  0  0  0
 58140  1  0  0  0  0
 59 61  1  0  0  0  0
 59141  1  0  0  0  0
 59142  1  0  0  0  0
 60 62  1  0  0  0  0
 60143  1  0  0  0  0
 60144  1  0  0  0  0
 61145  1  0  0  0  0
 61146  1  0  0  0  0
 61147  1  0  0  0  0
 62148  1  0  0  0  0
 62149  1  0  0  0  0
 62150  1  0  0  0  0
M  END
> <PUBCHEM_COMPOUND_CID>
23643936

> <PUBCHEM_COMPOUND_CANONICALIZED>
1

> <PUBCHEM_CACTVS_COMPLEXITY>
1100

> <PUBCHEM_CACTVS_HBOND_ACCEPTOR>
15

> <PUBCHEM_CACTVS_HBOND_DONOR>
7

> <PUBCHEM_CACTVS_ROTATABLE_BOND>
40

> <PUBCHEM_CACTVS_SUBSKEYS>
AAADcfB8PAAAAAAAAAAAAAAAAAAAAAAAAAAkSAAAAAAAAAAAAAAAGgAACAAACBSwgAMCCAAABgAIAACQCAAAAAAAAAAAAAEAAAAREBIAAAAiQAAFAAAHAAHI6KyAAAAAAAAAAAAAAAAAAAAAAAAAAAAAAA==

> <PUBCHEM_IUPAC_OPENEYE_NAME>
[(2S)-2-tetradecanoyloxy-3-[(2R,3R,4S,5R,6R)-3,4,5-trihydroxy-6-[[(2S,3R,4S,5R,6R)-3,4,5-trihydroxy-6-(hydroxymethyl)tetrahydropyran-2-yl]oxymethyl]tetrahydropyran-2-yl]oxy-propyl] octadecanoate

> <PUBCHEM_IUPAC_CAS_NAME>
octadecanoic acid [(2S)-2-(1-oxotetradecoxy)-3-[[(2R,3R,4S,5R,6R)-3,4,5-trihydroxy-6-[[(2S,3R,4S,5R,6R)-3,4,5-trihydroxy-6-(hydroxymethyl)-2-oxanyl]oxymethyl]-2-oxanyl]oxy]propyl] ester

> <PUBCHEM_IUPAC_NAME_MARKUP>
[(2<I>S</I>)-2-tetradecanoyloxy-3-[(2<I>R</I>,3<I>R</I>,4<I>S</I>,5<I>R</I>,6<I>R</I>)-3,4,5-trihydroxy-6-[[(2<I>S</I>,3<I>R</I>,4<I>S</I>,5<I>R</I>,6<I>R</I>)-3,4,5-trihydroxy-6-(hydroxymethyl)oxan-2-yl]oxymethyl]oxan-2-yl]oxypropyl] octadecanoate

> <PUBCHEM_IUPAC_NAME>
[(2S)-2-tetradecanoyloxy-3-[(2R,3R,4S,5R,6R)-3,4,5-trihydroxy-6-[[(2S,3R,4S,5R,6R)-3,4,5-trihydroxy-6-(hydroxymethyl)oxan-2-yl]oxymethyl]oxan-2-yl]oxypropyl] octadecanoate

> <PUBCHEM_IUPAC_SYSTEMATIC_NAME>
[(2S)-3-[(2R,3R,4S,5R,6R)-6-[[(2S,3R,4S,5R,6R)-6-(hydroxymethyl)-3,4,5-tris(oxidanyl)oxan-2-yl]oxymethyl]-3,4,5-tris(oxidanyl)oxan-2-yl]oxy-2-tetradecanoyloxy-propyl] octadecanoate

> <PUBCHEM_IUPAC_TRADITIONAL_NAME>
stearic acid [(2S)-2-tetradecanoyloxy-3-[(2R,3R,4S,5R,6R)-3,4,5-trihydroxy-6-[[(2S,3R,4S,5R,6R)-3,4,5-trihydroxy-6-methylol-tetrahydropyran-2-yl]oxymethyl]tetrahydropyran-2-yl]oxy-propyl] ester

> <PUBCHEM_IUPAC_INCHI>
InChI=1S/C47H88O15/c1-3-5-7-9-11-13-15-16-17-18-20-21-23-25-27-29-38(49)57-32-35(60-39(50)30-28-26-24-22-19-14-12-10-8-6-4-2)33-58-46-45(56)43(54)41(52)37(62-46)34-59-47-44(55)42(53)40(51)36(31-48)61-47/h35-37,40-48,51-56H,3-34H2,1-2H3/t35-,36-,37-,40+,41+,42+,43+,44-,45-,46-,47+/m1/s1

> <PUBCHEM_IUPAC_INCHIKEY>
LGYCXVJXWRPVSQ-PLEJJZNTSA-N

> <PUBCHEM_XLOGP3_AA>
10.3

> <PUBCHEM_EXACT_MASS>
892.61232210

> <PUBCHEM_MOLECULAR_FORMULA>
C47H88O15

> <PUBCHEM_MOLECULAR_WEIGHT>
893.2

> <PUBCHEM_SMILES>
CCCCCCCCCCCCCCCCCC(=O)OC[C@H](CO[C@H]1[C@@H]([C@H]([C@H]([C@H](O1)CO[C@@H]2[C@@H]([C@H]([C@H]([C@H](O2)CO)O)O)O)O)O)O)OC(=O)CCCCCCCCCCCCC

> <PUBCHEM_CONNECTIVITY_SMILES>
CCCCCCCCCCCCCCCCCC(=O)OCC(COC1C(C(C(C(O1)COC2C(C(C(C(O2)CO)O)O)O)O)O)O)OC(=O)CCCCCCCCCCCCC

> <PUBCHEM_CACTVS_TPSA>
231

> <PUBCHEM_MONOISOTOPIC_WEIGHT>
892.61232210

> <PUBCHEM_TOTAL_CHARGE>
0

> <PUBCHEM_HEAVY_ATOM_COUNT>
62

> <PUBCHEM_ATOM_DEF_STEREO_COUNT>
11

> <PUBCHEM_ATOM_UDEF_STEREO_COUNT>
0

> <PUBCHEM_BOND_DEF_STEREO_COUNT>
0

> <PUBCHEM_BOND_UDEF_STEREO_COUNT>
0

> <PUBCHEM_ISOTOPIC_ATOM_COUNT>
0

> <PUBCHEM_COMPONENT_COUNT>
1

> <PUBCHEM_CACTVS_TAUTO_COUNT>
-1

> <PUBCHEM_COORDINATE_TYPE>
1
5
255

> <PUBCHEM_BONDANNOTATIONS>
24  10  5
29  12  6
16  26  5
25  27  5
21  3  6
23  4  5
17  5  5
18  6  5
19  7  6
20  8  6
22  9  5

$$$$
