102316888
  -OEChem-01202622402D

 42 42  0     0  0  0  0  0  0999 V2000
    2.8660   -4.0950    0.0000 O   0  0  0  0  0  0  0  0  0  0  0  0
    4.5981    0.9050    0.0000 O   0  0  0  0  0  0  0  0  0  0  0  0
    4.5981   -5.0950    0.0000 O   0  0  0  0  0  0  0  0  0  0  0  0
    8.0622    3.9050    0.0000 C   0  0  0  0  0  0  0  0  0  0  0  0
    7.1962    3.4050    0.0000 C   0  0  0  0  0  0  0  0  0  0  0  0
    8.0622    4.9050    0.0000 C   0  0  0  0  0  0  0  0  0  0  0  0
    7.1962    2.4050    0.0000 C   0  0  0  0  0  0  0  0  0  0  0  0
    8.9282    5.4050    0.0000 C   0  0  0  0  0  0  0  0  0  0  0  0
    6.3301    1.9050    0.0000 C   0  0  0  0  0  0  0  0  0  0  0  0
    6.3301    0.9050    0.0000 C   0  0  0  0  0  0  0  0  0  0  0  0
    4.5981   -2.0950    0.0000 C   0  0  0  0  0  0  0  0  0  0  0  0
    5.4641    0.4050    0.0000 C   0  0  0  0  0  0  0  0  0  0  0  0
    3.7320   -2.5950    0.0000 C   0  0  0  0  0  0  0  0  0  0  0  0
    4.5981   -1.0950    0.0000 C   0  0  0  0  0  0  0  0  0  0  0  0
    5.4641   -0.5950    0.0000 C   0  0  0  0  0  0  0  0  0  0  0  0
    3.7320   -3.5950    0.0000 C   0  0  0  0  0  0  0  0  0  0  0  0
    5.4641   -2.5950    0.0000 C   0  0  0  0  0  0  0  0  0  0  0  0
    4.5981   -4.0950    0.0000 C   0  0  0  0  0  0  0  0  0  0  0  0
    5.4641   -3.5950    0.0000 C   0  0  0  0  0  0  0  0  0  0  0  0
    2.0000   -3.5950    0.0000 C   0  0  0  0  0  0  0  0  0  0  0  0
    8.2742    3.3224    0.0000 H   0  0  0  0  0  0  0  0  0  0  0  0
    8.6728    4.0127    0.0000 H   0  0  0  0  0  0  0  0  0  0  0  0
    6.9841    3.9876    0.0000 H   0  0  0  0  0  0  0  0  0  0  0  0
    6.5856    3.2973    0.0000 H   0  0  0  0  0  0  0  0  0  0  0  0
    7.8501    5.4876    0.0000 H   0  0  0  0  0  0  0  0  0  0  0  0
    7.4516    4.7973    0.0000 H   0  0  0  0  0  0  0  0  0  0  0  0
    7.4082    1.8224    0.0000 H   0  0  0  0  0  0  0  0  0  0  0  0
    7.8067    2.5127    0.0000 H   0  0  0  0  0  0  0  0  0  0  0  0
    9.2382    4.8681    0.0000 H   0  0  0  0  0  0  0  0  0  0  0  0
    9.4651    5.7150    0.0000 H   0  0  0  0  0  0  0  0  0  0  0  0
    8.6182    5.9419    0.0000 H   0  0  0  0  0  0  0  0  0  0  0  0
    5.7932    2.2150    0.0000 H   0  0  0  0  0  0  0  0  0  0  0  0
    6.8671    0.5950    0.0000 H   0  0  0  0  0  0  0  0  0  0  0  0
    3.1951   -2.2850    0.0000 H   0  0  0  0  0  0  0  0  0  0  0  0
    4.0611   -0.7850    0.0000 H   0  0  0  0  0  0  0  0  0  0  0  0
    6.0010   -0.9050    0.0000 H   0  0  0  0  0  0  0  0  0  0  0  0
    6.0010   -2.2850    0.0000 H   0  0  0  0  0  0  0  0  0  0  0  0
    6.0010   -3.9050    0.0000 H   0  0  0  0  0  0  0  0  0  0  0  0
    5.1350   -5.4050    0.0000 H   0  0  0  0  0  0  0  0  0  0  0  0
    2.3100   -3.0581    0.0000 H   0  0  0  0  0  0  0  0  0  0  0  0
    1.4631   -3.2850    0.0000 H   0  0  0  0  0  0  0  0  0  0  0  0
    1.6900   -4.1319    0.0000 H   0  0  0  0  0  0  0  0  0  0  0  0
  1 16  1  0  0  0  0
  1 20  1  0  0  0  0
  2 12  2  0  0  0  0
  3 18  1  0  0  0  0
  3 39  1  0  0  0  0
  4  5  1  0  0  0  0
  4  6  1  0  0  0  0
  4 21  1  0  0  0  0
  4 22  1  0  0  0  0
  5  7  1  0  0  0  0
  5 23  1  0  0  0  0
  5 24  1  0  0  0  0
  6  8  1  0  0  0  0
  6 25  1  0  0  0  0
  6 26  1  0  0  0  0
  7  9  1  0  0  0  0
  7 27  1  0  0  0  0
  7 28  1  0  0  0  0
  8 29  1  0  0  0  0
  8 30  1  0  0  0  0
  8 31  1  0  0  0  0
  9 10  2  0  0  0  0
  9 32  1  0  0  0  0
 10 12  1  0  0  0  0
 10 33  1  0  0  0  0
 11 13  2  0  0  0  0
 11 14  1  0  0  0  0
 11 17  1  0  0  0  0
 12 15  1  0  0  0  0
 13 16  1  0  0  0  0
 13 34  1  0  0  0  0
 14 15  2  0  0  0  0
 14 35  1  0  0  0  0
 15 36  1  0  0  0  0
 16 18  2  0  0  0  0
 17 19  2  0  0  0  0
 17 37  1  0  0  0  0
 18 19  1  0  0  0  0
 19 38  1  0  0  0  0
 20 40  1  0  0  0  0
 20 41  1  0  0  0  0
 20 42  1  0  0  0  0
M  END
> <PUBCHEM_COMPOUND_CID>
102316888

> <PUBCHEM_COMPOUND_CANONICALIZED>
1

> <PUBCHEM_CACTVS_COMPLEXITY>
333

> <PUBCHEM_CACTVS_HBOND_ACCEPTOR>
3

> <PUBCHEM_CACTVS_HBOND_DONOR>
1

> <PUBCHEM_CACTVS_ROTATABLE_BOND>
8

> <PUBCHEM_CACTVS_SUBSKEYS>
AAADceB4MAAAAAAAAAAAAAAAAAAAAAAAAAAwAAAAAAAAAAABAAAAGgAACAAADASAmAIyBoAABgCIAqBSAAACCAAgIAAIiAAGiMgNJiKGMRqAcCMkwBELuYeAwBAOIAABAAAAQABAAAIAAACAAAAAAAAAAA==

> <PUBCHEM_IUPAC_OPENEYE_NAME>
(1E,4E)-1-(4-hydroxy-3-methoxy-phenyl)deca-1,4-dien-3-one

> <PUBCHEM_IUPAC_CAS_NAME>
(1E,4E)-1-(4-hydroxy-3-methoxyphenyl)-3-deca-1,4-dienone

> <PUBCHEM_IUPAC_NAME_MARKUP>
(1<I>E</I>,4<I>E</I>)-1-(4-hydroxy-3-methoxyphenyl)deca-1,4-dien-3-one

> <PUBCHEM_IUPAC_NAME>
(1E,4E)-1-(4-hydroxy-3-methoxyphenyl)deca-1,4-dien-3-one

> <PUBCHEM_IUPAC_SYSTEMATIC_NAME>
(1E,4E)-1-(3-methoxy-4-oxidanyl-phenyl)deca-1,4-dien-3-one

> <PUBCHEM_IUPAC_TRADITIONAL_NAME>
(1E,4E)-1-(4-hydroxy-3-methoxy-phenyl)deca-1,4-dien-3-one

> <PUBCHEM_IUPAC_INCHI>
InChI=1S/C17H22O3/c1-3-4-5-6-7-8-15(18)11-9-14-10-12-16(19)17(13-14)20-2/h7-13,19H,3-6H2,1-2H3/b8-7+,11-9+

> <PUBCHEM_IUPAC_INCHIKEY>
JLXKTAQNHHXFHL-MFDVASPDSA-N

> <PUBCHEM_XLOGP3>
4.6

> <PUBCHEM_EXACT_MASS>
274.15689456

> <PUBCHEM_MOLECULAR_FORMULA>
C17H22O3

> <PUBCHEM_MOLECULAR_WEIGHT>
274.35

> <PUBCHEM_SMILES>
CCCCC/C=C/C(=O)/C=C/C1=CC(=C(C=C1)O)OC

> <PUBCHEM_CONNECTIVITY_SMILES>
CCCCCC=CC(=O)C=CC1=CC(=C(C=C1)O)OC

> <PUBCHEM_CACTVS_TPSA>
46.5

> <PUBCHEM_MONOISOTOPIC_WEIGHT>
274.15689456

> <PUBCHEM_TOTAL_CHARGE>
0

> <PUBCHEM_HEAVY_ATOM_COUNT>
20

> <PUBCHEM_ATOM_DEF_STEREO_COUNT>
0

> <PUBCHEM_ATOM_UDEF_STEREO_COUNT>
0

> <PUBCHEM_BOND_DEF_STEREO_COUNT>
2

> <PUBCHEM_BOND_UDEF_STEREO_COUNT>
0

> <PUBCHEM_ISOTOPIC_ATOM_COUNT>
0

> <PUBCHEM_COMPONENT_COUNT>
1

> <PUBCHEM_CACTVS_TAUTO_COUNT>
-1

> <PUBCHEM_COORDINATE_TYPE>
1
5
255

> <PUBCHEM_BONDANNOTATIONS>
11  13  8
11  17  8
13  16  8
16  18  8
17  19  8
18  19  8

$$$$
