193195
  -OEChem-01202622222D

 41 43  0     0  0  0  0  0  0999 V2000
    2.5369    1.3450    0.0000 O   0  0  0  0  0  0  0  0  0  0  0  0
    7.7331    4.3450    0.0000 O   0  0  0  0  0  0  0  0  0  0  0  0
    6.0010   -4.6550    0.0000 O   0  0  0  0  0  0  0  0  0  0  0  0
    4.2690    1.3450    0.0000 C   0  0  0  0  0  0  0  0  0  0  0  0
    5.1350   -0.1550    0.0000 C   0  0  0  0  0  0  0  0  0  0  0  0
    4.2690    2.3450    0.0000 C   0  0  0  0  0  0  0  0  0  0  0  0
    6.0010   -0.6550    0.0000 C   0  0  0  0  0  0  0  0  0  0  0  0
    5.1350    0.8450    0.0000 C   0  0  0  0  0  0  0  0  0  0  0  0
    5.1350    2.8450    0.0000 C   0  0  0  0  0  0  0  0  0  0  0  0
    3.4030    0.8450    0.0000 C   0  0  0  0  0  0  0  0  0  0  0  0
    6.0010   -1.6550    0.0000 C   0  0  0  0  0  0  0  0  0  0  0  0
    4.2690   -0.6550    0.0000 C   0  0  0  0  0  0  0  0  0  0  0  0
    3.4030   -0.1550    0.0000 C   0  0  0  0  0  0  0  0  0  0  0  0
    5.1350    3.8450    0.0000 C   0  0  0  0  0  0  0  0  0  0  0  0
    6.0010    2.3450    0.0000 C   0  0  0  0  0  0  0  0  0  0  0  0
    6.8671   -2.1550    0.0000 C   0  0  0  0  0  0  0  0  0  0  0  0
    5.1350   -2.1550    0.0000 C   0  0  0  0  0  0  0  0  0  0  0  0
    6.0010    4.3450    0.0000 C   0  0  0  0  0  0  0  0  0  0  0  0
    6.8671    2.8450    0.0000 C   0  0  0  0  0  0  0  0  0  0  0  0
    6.8671   -3.1550    0.0000 C   0  0  0  0  0  0  0  0  0  0  0  0
    5.1350   -3.1550    0.0000 C   0  0  0  0  0  0  0  0  0  0  0  0
    6.8671    3.8450    0.0000 C   0  0  0  0  0  0  0  0  0  0  0  0
    6.0010   -3.6550    0.0000 C   0  0  0  0  0  0  0  0  0  0  0  0
    4.0569    2.9276    0.0000 H   0  0  0  0  0  0  0  0  0  0  0  0
    3.6584    2.2373    0.0000 H   0  0  0  0  0  0  0  0  0  0  0  0
    6.6116   -0.7627    0.0000 H   0  0  0  0  0  0  0  0  0  0  0  0
    6.2131   -0.0724    0.0000 H   0  0  0  0  0  0  0  0  0  0  0  0
    5.6720    1.1550    0.0000 H   0  0  0  0  0  0  0  0  0  0  0  0
    4.2690   -1.2750    0.0000 H   0  0  0  0  0  0  0  0  0  0  0  0
    2.8660   -0.4650    0.0000 H   0  0  0  0  0  0  0  0  0  0  0  0
    4.5981    4.1550    0.0000 H   0  0  0  0  0  0  0  0  0  0  0  0
    6.0010    1.7250    0.0000 H   0  0  0  0  0  0  0  0  0  0  0  0
    7.4040   -1.8450    0.0000 H   0  0  0  0  0  0  0  0  0  0  0  0
    4.5981   -1.8450    0.0000 H   0  0  0  0  0  0  0  0  0  0  0  0
    6.0010    4.9650    0.0000 H   0  0  0  0  0  0  0  0  0  0  0  0
    7.4040    2.5350    0.0000 H   0  0  0  0  0  0  0  0  0  0  0  0
    7.4040   -3.4650    0.0000 H   0  0  0  0  0  0  0  0  0  0  0  0
    4.5981   -3.4650    0.0000 H   0  0  0  0  0  0  0  0  0  0  0  0
    2.0000    1.0350    0.0000 H   0  0  0  0  0  0  0  0  0  0  0  0
    7.7331    4.9650    0.0000 H   0  0  0  0  0  0  0  0  0  0  0  0
    6.5380   -4.9650    0.0000 H   0  0  0  0  0  0  0  0  0  0  0  0
  1 10  1  0  0  0  0
  1 39  1  0  0  0  0
  2 22  1  0  0  0  0
  2 40  1  0  0  0  0
  3 23  1  0  0  0  0
  3 41  1  0  0  0  0
  4  6  1  0  0  0  0
  4  8  1  0  0  0  0
  4 10  2  0  0  0  0
  5  7  1  0  0  0  0
  5  8  2  0  0  0  0
  5 12  1  0  0  0  0
  6  9  1  0  0  0  0
  6 24  1  0  0  0  0
  6 25  1  0  0  0  0
  7 11  1  0  0  0  0
  7 26  1  0  0  0  0
  7 27  1  0  0  0  0
  8 28  1  0  0  0  0
  9 14  2  0  0  0  0
  9 15  1  0  0  0  0
 10 13  1  0  0  0  0
 11 16  2  0  0  0  0
 11 17  1  0  0  0  0
 12 13  2  0  0  0  0
 12 29  1  0  0  0  0
 13 30  1  0  0  0  0
 14 18  1  0  0  0  0
 14 31  1  0  0  0  0
 15 19  2  0  0  0  0
 15 32  1  0  0  0  0
 16 20  1  0  0  0  0
 16 33  1  0  0  0  0
 17 21  2  0  0  0  0
 17 34  1  0  0  0  0
 18 22  2  0  0  0  0
 18 35  1  0  0  0  0
 19 22  1  0  0  0  0
 19 36  1  0  0  0  0
 20 23  2  0  0  0  0
 20 37  1  0  0  0  0
 21 23  1  0  0  0  0
 21 38  1  0  0  0  0
M  END
> <PUBCHEM_COMPOUND_CID>
193195

> <PUBCHEM_COMPOUND_CANONICALIZED>
1

> <PUBCHEM_CACTVS_COMPLEXITY>
343

> <PUBCHEM_CACTVS_HBOND_ACCEPTOR>
3

> <PUBCHEM_CACTVS_HBOND_DONOR>
3

> <PUBCHEM_CACTVS_ROTATABLE_BOND>
4

> <PUBCHEM_CACTVS_SUBSKEYS>
AAADceB4MAAAAAAAAAAAAAAAAAAAAAAAAAAwYMAAAAAAAAABUAAAGgAACAAADASAmAAwBoAAAgCAAiBCAAACAAAgIAAIiAAGCIgIJiKCERKAcAAkwBEImAeAwOAOIAACAAAIAABAAAQAABAAAAAAAAAAAA==

> <PUBCHEM_IUPAC_OPENEYE_NAME>
2,4-bis[(4-hydroxyphenyl)methyl]phenol

> <PUBCHEM_IUPAC_CAS_NAME>
2,4-bis[(4-hydroxyphenyl)methyl]phenol

> <PUBCHEM_IUPAC_NAME_MARKUP>
2,4-bis[(4-hydroxyphenyl)methyl]phenol

> <PUBCHEM_IUPAC_NAME>
2,4-bis[(4-hydroxyphenyl)methyl]phenol

> <PUBCHEM_IUPAC_SYSTEMATIC_NAME>
2,4-bis[(4-hydroxyphenyl)methyl]phenol

> <PUBCHEM_IUPAC_TRADITIONAL_NAME>
2,4-bis(4-hydroxybenzyl)phenol

> <PUBCHEM_IUPAC_INCHI>
InChI=1S/C20H18O3/c21-18-6-1-14(2-7-18)11-16-5-10-20(23)17(13-16)12-15-3-8-19(22)9-4-15/h1-10,13,21-23H,11-12H2

> <PUBCHEM_IUPAC_INCHIKEY>
YQOVRUAPWCGSLC-UHFFFAOYSA-N

> <PUBCHEM_XLOGP3_AA>
4.7

> <PUBCHEM_EXACT_MASS>
306.125594432

> <PUBCHEM_MOLECULAR_FORMULA>
C20H18O3

> <PUBCHEM_MOLECULAR_WEIGHT>
306.4

> <PUBCHEM_SMILES>
C1=CC(=CC=C1CC2=CC(=C(C=C2)O)CC3=CC=C(C=C3)O)O

> <PUBCHEM_CONNECTIVITY_SMILES>
C1=CC(=CC=C1CC2=CC(=C(C=C2)O)CC3=CC=C(C=C3)O)O

> <PUBCHEM_CACTVS_TPSA>
60.7

> <PUBCHEM_MONOISOTOPIC_WEIGHT>
306.125594432

> <PUBCHEM_TOTAL_CHARGE>
0

> <PUBCHEM_HEAVY_ATOM_COUNT>
23

> <PUBCHEM_ATOM_DEF_STEREO_COUNT>
0

> <PUBCHEM_ATOM_UDEF_STEREO_COUNT>
0

> <PUBCHEM_BOND_DEF_STEREO_COUNT>
0

> <PUBCHEM_BOND_UDEF_STEREO_COUNT>
0

> <PUBCHEM_ISOTOPIC_ATOM_COUNT>
0

> <PUBCHEM_COMPONENT_COUNT>
1

> <PUBCHEM_CACTVS_TAUTO_COUNT>
-1

> <PUBCHEM_COORDINATE_TYPE>
1
5
255

> <PUBCHEM_BONDANNOTATIONS>
10  13  8
11  16  8
11  17  8
12  13  8
14  18  8
15  19  8
16  20  8
17  21  8
18  22  8
19  22  8
20  23  8
21  23  8
4  10  8
4  8  8
5  12  8
5  8  8
9  14  8
9  15  8

$$$$
