9905016
  -OEChem-01202622352D

 51 53  0     1  0  0  0  0  0999 V2000
    6.5731   -1.4989    0.0000 O   0  0  0  0  0  0  0  0  0  0  0  0
    5.1533   -1.7574    0.0000 O   0  0  0  0  0  0  0  0  0  0  0  0
    3.1915   -1.1688    0.0000 O   0  0  0  0  0  0  0  0  0  0  0  0
    7.6966    0.9099    0.0000 C   0  0  3  0  0  0  0  0  0  0  0  0
    8.6871    1.2323    0.0000 C   0  0  0  0  0  0  0  0  0  0  0  0
    7.4741   -0.0650    0.0000 C   0  0  3  0  0  0  0  0  0  0  0  0
    9.4561    0.5297    0.0000 C   0  0  0  0  0  0  0  0  0  0  0  0
    8.2266   -0.7852    0.0000 C   0  0  0  0  0  0  0  0  0  0  0  0
    7.0731    1.6918    0.0000 C   0  0  0  0  0  0  0  0  0  0  0  0
    9.2243   -0.4858    0.0000 C   0  0  0  0  0  0  0  0  0  0  0  0
    9.3588    1.9731    0.0000 C   0  0  0  0  0  0  0  0  0  0  0  0
    8.3813    2.1844    0.0000 C   0  0  0  0  0  0  0  0  0  0  0  0
    6.5731   -0.4989    0.0000 C   0  0  0  0  0  0  0  0  0  0  0  0
    6.0731    1.6918    0.0000 C   0  0  0  0  0  0  0  0  0  0  0  0
    5.6721   -0.0650    0.0000 C   0  0  0  0  0  0  0  0  0  0  0  0
    5.4496    0.9100    0.0000 C   0  0  0  0  0  0  0  0  0  0  0  0
    4.4591    1.2323    0.0000 C   0  0  0  0  0  0  0  0  0  0  0  0
    4.9196   -0.7851    0.0000 C   0  0  0  0  0  0  0  0  0  0  0  0
    3.6901    0.5297    0.0000 C   0  0  0  0  0  0  0  0  0  0  0  0
    3.9219   -0.4858    0.0000 C   0  0  0  0  0  0  0  0  0  0  0  0
    2.7357    0.8282    0.0000 C   0  0  0  0  0  0  0  0  0  0  0  0
    2.5169    1.8040    0.0000 C   0  0  0  0  0  0  0  0  0  0  0  0
    2.0000    0.1508    0.0000 C   0  0  0  0  0  0  0  0  0  0  0  0
    7.8748    1.5038    0.0000 H   0  0  0  0  0  0  0  0  0  0  0  0
    7.3769   -0.6773    0.0000 H   0  0  0  0  0  0  0  0  0  0  0  0
   10.0280    0.2903    0.0000 H   0  0  0  0  0  0  0  0  0  0  0  0
    9.7898    1.0522    0.0000 H   0  0  0  0  0  0  0  0  0  0  0  0
    7.7276   -1.1532    0.0000 H   0  0  0  0  0  0  0  0  0  0  0  0
    8.5038   -1.3398    0.0000 H   0  0  0  0  0  0  0  0  0  0  0  0
    7.6317    1.9608    0.0000 H   0  0  0  0  0  0  0  0  0  0  0  0
    6.9352    2.2962    0.0000 H   0  0  0  0  0  0  0  0  0  0  0  0
    9.2982   -1.1014    0.0000 H   0  0  0  0  0  0  0  0  0  0  0  0
    9.8435   -0.5183    0.0000 H   0  0  0  0  0  0  0  0  0  0  0  0
    9.8181    1.5567    0.0000 H   0  0  0  0  0  0  0  0  0  0  0  0
    9.7752    2.4325    0.0000 H   0  0  0  0  0  0  0  0  0  0  0  0
    8.8994    2.3896    0.0000 H   0  0  0  0  0  0  0  0  0  0  0  0
    8.9716    2.3740    0.0000 H   0  0  0  0  0  0  0  0  0  0  0  0
    8.1917    2.7747    0.0000 H   0  0  0  0  0  0  0  0  0  0  0  0
    7.7910    1.9948    0.0000 H   0  0  0  0  0  0  0  0  0  0  0  0
    6.2111    2.2962    0.0000 H   0  0  0  0  0  0  0  0  0  0  0  0
    5.5145    1.9608    0.0000 H   0  0  0  0  0  0  0  0  0  0  0  0
    4.3282    1.8383    0.0000 H   0  0  0  0  0  0  0  0  0  0  0  0
    2.1439    1.0132    0.0000 H   0  0  0  0  0  0  0  0  0  0  0  0
    4.7038   -2.1844    0.0000 H   0  0  0  0  0  0  0  0  0  0  0  0
    3.1219    1.9396    0.0000 H   0  0  0  0  0  0  0  0  0  0  0  0
    2.3813    2.4089    0.0000 H   0  0  0  0  0  0  0  0  0  0  0  0
    1.9119    1.6683    0.0000 H   0  0  0  0  0  0  0  0  0  0  0  0
    1.5801    0.6069    0.0000 H   0  0  0  0  0  0  0  0  0  0  0  0
    1.5439   -0.2691    0.0000 H   0  0  0  0  0  0  0  0  0  0  0  0
    2.4200   -0.3053    0.0000 H   0  0  0  0  0  0  0  0  0  0  0  0
    3.3317   -1.7727    0.0000 H   0  0  0  0  0  0  0  0  0  0  0  0
  1 13  2  0  0  0  0
  2 18  1  0  0  0  0
  2 44  1  0  0  0  0
  3 20  1  0  0  0  0
  3 51  1  0  0  0  0
  4  5  1  0  0  0  0
  4  6  1  0  0  0  0
  4  9  1  0  0  0  0
  4 24  1  0  0  0  0
  5  7  1  0  0  0  0
  5 11  1  0  0  0  0
  5 12  1  0  0  0  0
  6  8  1  0  0  0  0
  6 13  1  0  0  0  0
  6 25  1  0  0  0  0
  7 10  1  0  0  0  0
  7 26  1  0  0  0  0
  7 27  1  0  0  0  0
  8 10  1  0  0  0  0
  8 28  1  0  0  0  0
  8 29  1  0  0  0  0
  9 14  1  0  0  0  0
  9 30  1  0  0  0  0
  9 31  1  0  0  0  0
 10 32  1  0  0  0  0
 10 33  1  0  0  0  0
 11 34  1  0  0  0  0
 11 35  1  0  0  0  0
 11 36  1  0  0  0  0
 12 37  1  0  0  0  0
 12 38  1  0  0  0  0
 12 39  1  0  0  0  0
 13 15  1  0  0  0  0
 14 16  1  0  0  0  0
 14 40  1  0  0  0  0
 14 41  1  0  0  0  0
 15 16  1  0  0  0  0
 15 18  2  0  0  0  0
 16 17  2  0  0  0  0
 17 19  1  0  0  0  0
 17 42  1  0  0  0  0
 18 20  1  0  0  0  0
 19 20  2  0  0  0  0
 19 21  1  0  0  0  0
 21 22  1  0  0  0  0
 21 23  1  0  0  0  0
 21 43  1  0  0  0  0
 22 45  1  0  0  0  0
 22 46  1  0  0  0  0
 22 47  1  0  0  0  0
 23 48  1  0  0  0  0
 23 49  1  0  0  0  0
 23 50  1  0  0  0  0
M  END
> <PUBCHEM_COMPOUND_CID>
9905016

> <PUBCHEM_COMPOUND_CANONICALIZED>
1

> <PUBCHEM_CACTVS_COMPLEXITY>
456

> <PUBCHEM_CACTVS_HBOND_ACCEPTOR>
3

> <PUBCHEM_CACTVS_HBOND_DONOR>
2

> <PUBCHEM_CACTVS_ROTATABLE_BOND>
1

> <PUBCHEM_CACTVS_SUBSKEYS>
AAADceB4MAAAAAAAAAAAAAAAAAAAAAAAAAAwYAAABgAAAAABAAAAGgAACAAADwSAmAAyBoAAAgCIAqBSAAACAAAkIAAAiAEEiMgJJjaCFRKAcUEk4BEJmQeKyPCP4AADAAAYQADAAAYAADCAAAAAAAAAAA==

> <PUBCHEM_IUPAC_OPENEYE_NAME>
14,15-dihydroxy-13-isopropyl-7,7-dimethyl-tricyclo[9.4.0.03,8]pentadeca-1(15),11,13-trien-2-one

> <PUBCHEM_IUPAC_CAS_NAME>
14,15-dihydroxy-7,7-dimethyl-13-propan-2-yl-2-tricyclo[9.4.0.03,8]pentadeca-1(15),11,13-trienone

> <PUBCHEM_IUPAC_NAME_MARKUP>
14,15-dihydroxy-7,7-dimethyl-13-propan-2-yltricyclo[9.4.0.0<SUP>3,8</SUP>]pentadeca-1(15),11,13-trien-2-one

> <PUBCHEM_IUPAC_NAME>
14,15-dihydroxy-7,7-dimethyl-13-propan-2-yltricyclo[9.4.0.03,8]pentadeca-1(15),11,13-trien-2-one

> <PUBCHEM_IUPAC_SYSTEMATIC_NAME>
7,7-dimethyl-14,15-bis(oxidanyl)-13-propan-2-yl-tricyclo[9.4.0.03,8]pentadeca-1(15),11,13-trien-2-one

> <PUBCHEM_IUPAC_TRADITIONAL_NAME>
14,15-dihydroxy-13-isopropyl-7,7-dimethyl-tricyclo[9.4.0.03,8]pentadeca-1(15),11,13-trien-2-one

> <PUBCHEM_IUPAC_INCHI>
InChI=1S/C20H28O3/c1-11(2)14-10-12-7-8-15-13(6-5-9-20(15,3)4)17(21)16(12)19(23)18(14)22/h10-11,13,15,22-23H,5-9H2,1-4H3

> <PUBCHEM_IUPAC_INCHIKEY>
WIEOUDNBMYRSRD-UHFFFAOYSA-N

> <PUBCHEM_XLOGP3_AA>
5.9

> <PUBCHEM_EXACT_MASS>
316.20384475

> <PUBCHEM_MOLECULAR_FORMULA>
C20H28O3

> <PUBCHEM_MOLECULAR_WEIGHT>
316.4

> <PUBCHEM_SMILES>
CC(C)C1=C(C(=C2C(=C1)CCC3C(C2=O)CCCC3(C)C)O)O

> <PUBCHEM_CONNECTIVITY_SMILES>
CC(C)C1=C(C(=C2C(=C1)CCC3C(C2=O)CCCC3(C)C)O)O

> <PUBCHEM_CACTVS_TPSA>
57.5

> <PUBCHEM_MONOISOTOPIC_WEIGHT>
316.20384475

> <PUBCHEM_TOTAL_CHARGE>
0

> <PUBCHEM_HEAVY_ATOM_COUNT>
23

> <PUBCHEM_ATOM_DEF_STEREO_COUNT>
0

> <PUBCHEM_ATOM_UDEF_STEREO_COUNT>
2

> <PUBCHEM_BOND_DEF_STEREO_COUNT>
0

> <PUBCHEM_BOND_UDEF_STEREO_COUNT>
0

> <PUBCHEM_ISOTOPIC_ATOM_COUNT>
0

> <PUBCHEM_COMPONENT_COUNT>
1

> <PUBCHEM_CACTVS_TAUTO_COUNT>
-1

> <PUBCHEM_COORDINATE_TYPE>
1
5
255

> <PUBCHEM_BONDANNOTATIONS>
15  16  8
15  18  8
16  17  8
17  19  8
18  20  8
19  20  8
4  9  3
6  8  3

$$$$
