10100906
  -OEChem-01202622362D

 75 79  0     1  0  0  0  0  0999 V2000
   11.2079   -1.7549    0.0000 O   0  0  0  0  0  0  0  0  0  0  0  0
    5.1350   -1.2393    0.0000 O   0  0  0  0  0  0  0  0  0  0  0  0
   10.3592   -0.2450    0.0000 O   0  0  0  0  0  0  0  0  0  0  0  0
    6.8671   -1.2393    0.0000 O   0  0  0  0  0  0  0  0  0  0  0  0
    8.5926   -3.2248    0.0000 O   0  0  0  0  0  0  0  0  0  0  0  0
   10.3130   -4.2447    0.0000 O   0  0  0  0  0  0  0  0  0  0  0  0
    5.1350   -4.2393    0.0000 O   0  0  0  0  0  0  0  0  0  0  0  0
    3.4030   -3.2393    0.0000 O   0  0  0  0  0  0  0  0  0  0  0  0
    8.6158   -1.2249    0.0000 O   0  0  0  0  0  0  0  0  0  0  0  0
    6.8671   -3.2393    0.0000 O   0  0  0  0  0  0  0  0  0  0  0  0
   12.9282   -2.7749    0.0000 O   0  0  0  0  0  0  0  0  0  0  0  0
    2.5369   -1.7393    0.0000 O   0  0  0  0  0  0  0  0  0  0  0  0
    8.6504    1.7749    0.0000 O   0  3  0  0  0  0  0  0  0  0  0  0
    5.1208    1.8399    0.0000 O   0  0  0  0  0  0  0  0  0  0  0  0
   12.9745    1.2249    0.0000 O   0  0  0  0  0  0  0  0  0  0  0  0
   11.2773    4.2447    0.0000 O   0  0  0  0  0  0  0  0  0  0  0  0
   12.9976    3.2248    0.0000 O   0  0  0  0  0  0  0  0  0  0  0  0
    9.4644   -2.7348    0.0000 C   0  0  1  0  0  0  0  0  0  0  0  0
   10.3246   -3.2448    0.0000 C   0  0  1  0  0  0  0  0  0  0  0  0
    5.1350   -3.2393    0.0000 C   0  0  1  0  0  0  0  0  0  0  0  0
    4.2690   -2.7393    0.0000 C   0  0  1  0  0  0  0  0  0  0  0  0
    9.4759   -1.7349    0.0000 C   0  0  2  0  0  0  0  0  0  0  0  0
    6.0010   -2.7393    0.0000 C   0  0  2  0  0  0  0  0  0  0  0  0
   11.1963   -2.7548    0.0000 C   0  0  1  0  0  0  0  0  0  0  0  0
    4.2690   -1.7393    0.0000 C   0  0  1  0  0  0  0  0  0  0  0  0
   10.3477   -1.2449    0.0000 C   0  0  1  0  0  0  0  0  0  0  0  0
    6.0010   -1.7393    0.0000 C   0  0  1  0  0  0  0  0  0  0  0  0
   12.0565   -3.2648    0.0000 C   0  0  0  0  0  0  0  0  0  0  0  0
    3.4030   -1.2393    0.0000 C   0  0  0  0  0  0  0  0  0  0  0  0
    9.4991    0.2650    0.0000 C   0  0  0  0  0  0  0  0  0  0  0  0
    6.8671   -0.2393    0.0000 C   0  0  0  0  0  0  0  0  0  0  0  0
    7.7671    0.2850    0.0000 C   0  0  0  0  0  0  0  0  0  0  0  0
    8.6273   -0.2249    0.0000 C   0  0  0  0  0  0  0  0  0  0  0  0
    9.5106    1.2649    0.0000 C   0  0  0  0  0  0  0  0  0  0  0  0
    7.7787    1.2850    0.0000 C   0  0  0  0  0  0  0  0  0  0  0  0
    5.9670    0.2850    0.0000 C   0  0  0  0  0  0  0  0  0  0  0  0
    6.8910    1.8299    0.0000 C   0  0  0  0  0  0  0  0  0  0  0  0
    5.9790    1.3266    0.0000 C   0  0  0  0  0  0  0  0  0  0  0  0
   10.3824    1.7549    0.0000 C   0  0  0  0  0  0  0  0  0  0  0  0
   10.3939    2.7548    0.0000 C   0  0  0  0  0  0  0  0  0  0  0  0
   11.2426    1.2449    0.0000 C   0  0  0  0  0  0  0  0  0  0  0  0
   12.1143    1.7349    0.0000 C   0  0  0  0  0  0  0  0  0  0  0  0
   11.2657    3.2448    0.0000 C   0  0  0  0  0  0  0  0  0  0  0  0
   12.1259    2.7348    0.0000 C   0  0  0  0  0  0  0  0  0  0  0  0
    9.9977   -3.0510    0.0000 H   0  0  0  0  0  0  0  0  0  0  0  0
   10.8579   -3.5610    0.0000 H   0  0  0  0  0  0  0  0  0  0  0  0
    4.5981   -3.5493    0.0000 H   0  0  0  0  0  0  0  0  0  0  0  0
    4.2690   -3.3593    0.0000 H   0  0  0  0  0  0  0  0  0  0  0  0
    8.9355   -2.0386    0.0000 H   0  0  0  0  0  0  0  0  0  0  0  0
    6.0010   -3.3593    0.0000 H   0  0  0  0  0  0  0  0  0  0  0  0
   11.7368   -2.4511    0.0000 H   0  0  0  0  0  0  0  0  0  0  0  0
    4.2690   -1.1193    0.0000 H   0  0  0  0  0  0  0  0  0  0  0  0
    9.8144   -0.9287    0.0000 H   0  0  0  0  0  0  0  0  0  0  0  0
    6.0010   -1.1193    0.0000 H   0  0  0  0  0  0  0  0  0  0  0  0
   11.6525   -3.7351    0.0000 H   0  0  0  0  0  0  0  0  0  0  0  0
   12.4495   -3.7443    0.0000 H   0  0  0  0  0  0  0  0  0  0  0  0
    3.8015   -0.7643    0.0000 H   0  0  0  0  0  0  0  0  0  0  0  0
    3.0044   -0.7643    0.0000 H   0  0  0  0  0  0  0  0  0  0  0  0
    8.5855   -3.8447    0.0000 H   0  0  0  0  0  0  0  0  0  0  0  0
   10.8463   -4.5609    0.0000 H   0  0  0  0  0  0  0  0  0  0  0  0
    4.5981   -4.5493    0.0000 H   0  0  0  0  0  0  0  0  0  0  0  0
    3.4030   -3.8593    0.0000 H   0  0  0  0  0  0  0  0  0  0  0  0
    8.0753   -1.5287    0.0000 H   0  0  0  0  0  0  0  0  0  0  0  0
    6.8671   -3.8593    0.0000 H   0  0  0  0  0  0  0  0  0  0  0  0
    8.6201   -0.8449    0.0000 H   0  0  0  0  0  0  0  0  0  0  0  0
   13.4616   -3.0910    0.0000 H   0  0  0  0  0  0  0  0  0  0  0  0
    2.0000   -1.4293    0.0000 H   0  0  0  0  0  0  0  0  0  0  0  0
    5.4277   -0.0208    0.0000 H   0  0  0  0  0  0  0  0  0  0  0  0
    6.9053    2.4498    0.0000 H   0  0  0  0  0  0  0  0  0  0  0  0
    9.8606    3.0710    0.0000 H   0  0  0  0  0  0  0  0  0  0  0  0
   11.2354    0.6250    0.0000 H   0  0  0  0  0  0  0  0  0  0  0  0
    5.1304    2.4598    0.0000 H   0  0  0  0  0  0  0  0  0  0  0  0
   13.5150    1.5287    0.0000 H   0  0  0  0  0  0  0  0  0  0  0  0
   10.7439    4.5609    0.0000 H   0  0  0  0  0  0  0  0  0  0  0  0
   13.0048    3.8447    0.0000 H   0  0  0  0  0  0  0  0  0  0  0  0
  1 24  1  0  0  0  0
  1 26  1  0  0  0  0
  2 25  1  0  0  0  0
  2 27  1  0  0  0  0
 26  3  1  6  0  0  0
  3 30  1  0  0  0  0
 27  4  1  1  0  0  0
  4 31  1  0  0  0  0
 18  5  1  6  0  0  0
  5 59  1  0  0  0  0
 19  6  1  1  0  0  0
  6 60  1  0  0  0  0
 20  7  1  1  0  0  0
  7 61  1  0  0  0  0
 21  8  1  6  0  0  0
  8 62  1  0  0  0  0
 22  9  1  1  0  0  0
  9 63  1  0  0  0  0
 23 10  1  6  0  0  0
 10 64  1  0  0  0  0
 11 28  1  0  0  0  0
 11 66  1  0  0  0  0
 12 29  1  0  0  0  0
 12 67  1  0  0  0  0
 13 34  1  0  0  0  0
 13 35  2  0  0  0  0
 14 38  1  0  0  0  0
 14 72  1  0  0  0  0
 15 42  1  0  0  0  0
 15 73  1  0  0  0  0
 16 43  1  0  0  0  0
 16 74  1  0  0  0  0
 17 44  1  0  0  0  0
 17 75  1  0  0  0  0
 18 19  1  0  0  0  0
 18 22  1  0  0  0  0
 18 45  1  0  0  0  0
 19 24  1  0  0  0  0
 19 46  1  0  0  0  0
 20 21  1  0  0  0  0
 20 23  1  0  0  0  0
 20 47  1  0  0  0  0
 21 25  1  0  0  0  0
 21 48  1  0  0  0  0
 22 26  1  0  0  0  0
 22 49  1  0  0  0  0
 23 27  1  0  0  0  0
 23 50  1  0  0  0  0
 24 28  1  6  0  0  0
 24 51  1  0  0  0  0
 25 29  1  1  0  0  0
 25 52  1  0  0  0  0
 26 53  1  0  0  0  0
 27 54  1  0  0  0  0
 28 55  1  0  0  0  0
 28 56  1  0  0  0  0
 29 57  1  0  0  0  0
 29 58  1  0  0  0  0
 30 33  1  0  0  0  0
 30 34  2  0  0  0  0
 31 32  1  0  0  0  0
 31 36  2  0  0  0  0
 32 33  2  0  0  0  0
 32 35  1  0  0  0  0
 33 65  1  0  0  0  0
 34 39  1  0  0  0  0
 35 37  1  0  0  0  0
 36 38  1  0  0  0  0
 36 68  1  0  0  0  0
 37 38  2  0  0  0  0
 37 69  1  0  0  0  0
 39 40  2  0  0  0  0
 39 41  1  0  0  0  0
 40 43  1  0  0  0  0
 40 70  1  0  0  0  0
 41 42  2  0  0  0  0
 41 71  1  0  0  0  0
 42 44  1  0  0  0  0
 43 44  2  0  0  0  0
M  CHG  1  13   1
M  END
> <PUBCHEM_COMPOUND_CID>
10100906

> <PUBCHEM_COMPOUND_CANONICALIZED>
1

> <PUBCHEM_CACTVS_COMPLEXITY>
919

> <PUBCHEM_CACTVS_HBOND_ACCEPTOR>
16

> <PUBCHEM_CACTVS_HBOND_DONOR>
12

> <PUBCHEM_CACTVS_ROTATABLE_BOND>
7

> <PUBCHEM_CACTVS_SUBSKEYS>
AAADceB4PgAAAAAAAAAAAAAAAAAAAAAAAAA0aJECAAAAAACR9AAAGgAACAAADBSwmAMwDsAABkCIAqBSAAICCAAkIAAAiAFGiMgdNzaGNR6ieWOl4BUPuYfK7PzOIAABCAAIQABAAAIQABCAAAAAAAAAAA==

> <PUBCHEM_IUPAC_OPENEYE_NAME>
(2R,3S,4S,5R,6S)-2-(hydroxymethyl)-6-[7-hydroxy-3-[(2S,3R,4S,5S,6R)-3,4,5-trihydroxy-6-(hydroxymethyl)tetrahydropyran-2-yl]oxy-2-(3,4,5-trihydroxyphenyl)chromenylium-5-yl]oxy-tetrahydropyran-3,4,5-triol

> <PUBCHEM_IUPAC_CAS_NAME>
(2R,3S,4S,5R,6S)-2-(hydroxymethyl)-6-[[7-hydroxy-3-[[(2S,3R,4S,5S,6R)-3,4,5-trihydroxy-6-(hydroxymethyl)-2-oxanyl]oxy]-2-(3,4,5-trihydroxyphenyl)-1-benzopyrylium-5-yl]oxy]oxane-3,4,5-triol

> <PUBCHEM_IUPAC_NAME_MARKUP>
(2<I>R</I>,3<I>S</I>,4<I>S</I>,5<I>R</I>,6<I>S</I>)-2-(hydroxymethyl)-6-[7-hydroxy-3-[(2<I>S</I>,3<I>R</I>,4<I>S</I>,5<I>S</I>,6<I>R</I>)-3,4,5-trihydroxy-6-(hydroxymethyl)oxan-2-yl]oxy-2-(3,4,5-trihydroxyphenyl)chromenylium-5-yl]oxyoxane-3,4,5-triol

> <PUBCHEM_IUPAC_NAME>
(2R,3S,4S,5R,6S)-2-(hydroxymethyl)-6-[7-hydroxy-3-[(2S,3R,4S,5S,6R)-3,4,5-trihydroxy-6-(hydroxymethyl)oxan-2-yl]oxy-2-(3,4,5-trihydroxyphenyl)chromenylium-5-yl]oxyoxane-3,4,5-triol

> <PUBCHEM_IUPAC_SYSTEMATIC_NAME>
(2R,3S,4S,5R,6S)-2-(hydroxymethyl)-6-[3-[(2S,3R,4S,5S,6R)-6-(hydroxymethyl)-3,4,5-tris(oxidanyl)oxan-2-yl]oxy-7-oxidanyl-2-[3,4,5-tris(oxidanyl)phenyl]chromenylium-5-yl]oxy-oxane-3,4,5-triol

> <PUBCHEM_IUPAC_TRADITIONAL_NAME>
(2S,3R,4S,5S,6R)-2-[[7-hydroxy-3-[(2S,3R,4S,5S,6R)-3,4,5-trihydroxy-6-methylol-tetrahydropyran-2-yl]oxy-2-(3,4,5-trihydroxyphenyl)-1-benzopyrylium-5-yl]oxy]-6-methylol-tetrahydropyran-3,4,5-triol

> <PUBCHEM_IUPAC_INCHI>
InChI=1S/C27H30O17/c28-6-16-19(34)21(36)23(38)26(43-16)41-14-4-9(30)3-13-10(14)5-15(25(40-13)8-1-11(31)18(33)12(32)2-8)42-27-24(39)22(37)20(35)17(7-29)44-27/h1-5,16-17,19-24,26-29,34-39H,6-7H2,(H3-,30,31,32,33)/p+1/t16-,17-,19-,20-,21+,22+,23-,24-,26-,27-/m1/s1

> <PUBCHEM_IUPAC_INCHIKEY>
XCTGXGVGJYACEI-LCENJUANSA-O

> <PUBCHEM_EXACT_MASS>
627.15612452

> <PUBCHEM_MOLECULAR_FORMULA>
C27H31O17+

> <PUBCHEM_MOLECULAR_WEIGHT>
627.5

> <PUBCHEM_SMILES>
C1=C(C=C(C(=C1O)O)O)C2=C(C=C3C(=CC(=CC3=[O+]2)O)O[C@H]4[C@@H]([C@H]([C@@H]([C@H](O4)CO)O)O)O)O[C@H]5[C@@H]([C@H]([C@@H]([C@H](O5)CO)O)O)O

> <PUBCHEM_CONNECTIVITY_SMILES>
C1=C(C=C(C(=C1O)O)O)C2=C(C=C3C(=CC(=CC3=[O+]2)O)OC4C(C(C(C(O4)CO)O)O)O)OC5C(C(C(C(O5)CO)O)O)O

> <PUBCHEM_CACTVS_TPSA>
281

> <PUBCHEM_MONOISOTOPIC_WEIGHT>
627.15612452

> <PUBCHEM_TOTAL_CHARGE>
1

> <PUBCHEM_HEAVY_ATOM_COUNT>
44

> <PUBCHEM_ATOM_DEF_STEREO_COUNT>
10

> <PUBCHEM_ATOM_UDEF_STEREO_COUNT>
0

> <PUBCHEM_BOND_DEF_STEREO_COUNT>
0

> <PUBCHEM_BOND_UDEF_STEREO_COUNT>
0

> <PUBCHEM_ISOTOPIC_ATOM_COUNT>
0

> <PUBCHEM_COMPONENT_COUNT>
1

> <PUBCHEM_CACTVS_TAUTO_COUNT>
-1

> <PUBCHEM_COORDINATE_TYPE>
1
5
255

> <PUBCHEM_BONDANNOTATIONS>
23  10  6
13  34  8
13  35  8
24  28  6
25  29  5
26  3  6
30  33  8
30  34  8
31  32  8
31  36  8
32  33  8
32  35  8
35  37  8
36  38  8
37  38  8
39  40  8
39  41  8
27  4  5
40  43  8
41  42  8
42  44  8
43  44  8
18  5  6
19  6  5
20  7  5
21  8  6
22  9  5

$$$$
