5320844
  -OEChem-01202622322D

 53 56  0     1  0  0  0  0  0999 V2000
    5.1350   -2.4276    0.0000 O   0  0  0  0  0  0  0  0  0  0  0  0
    6.8671   -2.4276    0.0000 O   0  0  0  0  0  0  0  0  0  0  0  0
    5.1350   -5.4276    0.0000 O   0  0  0  0  0  0  0  0  0  0  0  0
    3.4030   -4.4276    0.0000 O   0  0  0  0  0  0  0  0  0  0  0  0
    6.8671   -4.4276    0.0000 O   0  0  0  0  0  0  0  0  0  0  0  0
    2.5369   -2.9276    0.0000 O   0  0  0  0  0  0  0  0  0  0  0  0
    7.7331    2.0725    0.0000 O   0  0  0  0  0  0  0  0  0  0  0  0
    5.1350   -1.4276    0.0000 O   0  0  0  0  0  0  0  0  0  0  0  0
    5.1350    1.5725    0.0000 O   0  0  0  0  0  0  0  0  0  0  0  0
    5.1350    3.5725    0.0000 O   0  0  0  0  0  0  0  0  0  0  0  0
    5.9793    5.1039    0.0000 O   0  0  0  0  0  0  0  0  0  0  0  0
    9.5191    5.1176    0.0000 O   0  0  0  0  0  0  0  0  0  0  0  0
    5.1350   -4.4276    0.0000 C   0  0  1  0  0  0  0  0  0  0  0  0
    4.2690   -3.9276    0.0000 C   0  0  1  0  0  0  0  0  0  0  0  0
    6.0010   -3.9276    0.0000 C   0  0  2  0  0  0  0  0  0  0  0  0
    4.2690   -2.9276    0.0000 C   0  0  1  0  0  0  0  0  0  0  0  0
    6.0010   -2.9276    0.0000 C   0  0  1  0  0  0  0  0  0  0  0  0
    3.4030   -2.4276    0.0000 C   0  0  0  0  0  0  0  0  0  0  0  0
    6.8671   -1.4276    0.0000 C   0  0  0  0  0  0  0  0  0  0  0  0
    6.0010   -0.9276    0.0000 C   0  0  0  0  0  0  0  0  0  0  0  0
    7.7331   -0.9276    0.0000 C   0  0  0  0  0  0  0  0  0  0  0  0
    6.8671    0.5725    0.0000 C   0  0  0  0  0  0  0  0  0  0  0  0
    6.0010    0.0725    0.0000 C   0  0  0  0  0  0  0  0  0  0  0  0
    7.7331    0.0725    0.0000 C   0  0  0  0  0  0  0  0  0  0  0  0
    6.8671    1.5725    0.0000 C   0  0  0  0  0  0  0  0  0  0  0  0
    6.0010    2.0725    0.0000 C   0  0  0  0  0  0  0  0  0  0  0  0
    6.8671    3.5725    0.0000 C   0  0  0  0  0  0  0  0  0  0  0  0
    7.7331    3.0725    0.0000 C   0  0  0  0  0  0  0  0  0  0  0  0
    6.0010    3.0725    0.0000 C   0  0  0  0  0  0  0  0  0  0  0  0
    6.8510    4.6140    0.0000 C   0  0  0  0  0  0  0  0  0  0  0  0
    8.6431    3.5793    0.0000 C   0  0  0  0  0  0  0  0  0  0  0  0
    8.6511    4.6209    0.0000 C   0  0  0  0  0  0  0  0  0  0  0  0
    7.7490    5.1417    0.0000 C   0  0  0  0  0  0  0  0  0  0  0  0
    5.6720   -4.7376    0.0000 H   0  0  0  0  0  0  0  0  0  0  0  0
    3.7321   -3.6176    0.0000 H   0  0  0  0  0  0  0  0  0  0  0  0
    6.5380   -3.6176    0.0000 H   0  0  0  0  0  0  0  0  0  0  0  0
    4.2690   -2.3076    0.0000 H   0  0  0  0  0  0  0  0  0  0  0  0
    6.0010   -2.3076    0.0000 H   0  0  0  0  0  0  0  0  0  0  0  0
    3.8015   -1.9526    0.0000 H   0  0  0  0  0  0  0  0  0  0  0  0
    3.0044   -1.9526    0.0000 H   0  0  0  0  0  0  0  0  0  0  0  0
    5.6720   -5.7376    0.0000 H   0  0  0  0  0  0  0  0  0  0  0  0
    3.4030   -5.0476    0.0000 H   0  0  0  0  0  0  0  0  0  0  0  0
    7.4040   -4.1176    0.0000 H   0  0  0  0  0  0  0  0  0  0  0  0
    2.0000   -2.6176    0.0000 H   0  0  0  0  0  0  0  0  0  0  0  0
    8.2700   -1.2376    0.0000 H   0  0  0  0  0  0  0  0  0  0  0  0
    5.4641    0.3825    0.0000 H   0  0  0  0  0  0  0  0  0  0  0  0
    8.2700    0.3825    0.0000 H   0  0  0  0  0  0  0  0  0  0  0  0
    4.5981   -1.1176    0.0000 H   0  0  0  0  0  0  0  0  0  0  0  0
    9.1764    3.2631    0.0000 H   0  0  0  0  0  0  0  0  0  0  0  0
    7.7467    5.7617    0.0000 H   0  0  0  0  0  0  0  0  0  0  0  0
    4.5981    1.8825    0.0000 H   0  0  0  0  0  0  0  0  0  0  0  0
    5.9721    5.7239    0.0000 H   0  0  0  0  0  0  0  0  0  0  0  0
    9.5215    5.7376    0.0000 H   0  0  0  0  0  0  0  0  0  0  0  0
  1 16  1  0  0  0  0
  1 17  1  0  0  0  0
 17  2  1  1  0  0  0
  2 19  1  0  0  0  0
 13  3  1  1  0  0  0
  3 41  1  0  0  0  0
 14  4  1  6  0  0  0
  4 42  1  0  0  0  0
 15  5  1  6  0  0  0
  5 43  1  0  0  0  0
  6 18  1  0  0  0  0
  6 44  1  0  0  0  0
  7 25  1  0  0  0  0
  7 28  1  0  0  0  0
  8 20  1  0  0  0  0
  8 48  1  0  0  0  0
  9 26  1  0  0  0  0
  9 51  1  0  0  0  0
 10 29  2  0  0  0  0
 11 30  1  0  0  0  0
 11 52  1  0  0  0  0
 12 32  1  0  0  0  0
 12 53  1  0  0  0  0
 13 14  1  0  0  0  0
 13 15  1  0  0  0  0
 13 34  1  0  0  0  0
 14 16  1  0  0  0  0
 14 35  1  0  0  0  0
 15 17  1  0  0  0  0
 15 36  1  0  0  0  0
 16 18  1  1  0  0  0
 16 37  1  0  0  0  0
 17 38  1  0  0  0  0
 18 39  1  0  0  0  0
 18 40  1  0  0  0  0
 19 20  2  0  0  0  0
 19 21  1  0  0  0  0
 20 23  1  0  0  0  0
 21 24  2  0  0  0  0
 21 45  1  0  0  0  0
 22 23  2  0  0  0  0
 22 24  1  0  0  0  0
 22 25  1  0  0  0  0
 23 46  1  0  0  0  0
 24 47  1  0  0  0  0
 25 26  2  0  0  0  0
 26 29  1  0  0  0  0
 27 28  1  0  0  0  0
 27 29  1  0  0  0  0
 27 30  2  0  0  0  0
 28 31  2  0  0  0  0
 30 33  1  0  0  0  0
 31 32  1  0  0  0  0
 31 49  1  0  0  0  0
 32 33  2  0  0  0  0
 33 50  1  0  0  0  0
M  END
> <PUBCHEM_COMPOUND_CID>
5320844

> <PUBCHEM_COMPOUND_CANONICALIZED>
1

> <PUBCHEM_CACTVS_COMPLEXITY>
758

> <PUBCHEM_CACTVS_HBOND_ACCEPTOR>
12

> <PUBCHEM_CACTVS_HBOND_DONOR>
8

> <PUBCHEM_CACTVS_ROTATABLE_BOND>
4

> <PUBCHEM_CACTVS_SUBSKEYS>
AAADceB4PAAAAAAAAAAAAAAAAAAAAAAAAAA0YIEAAAAAAACBQAAAGgAACAAADBSwmAMwDoAABgCIAqBSAAICCAAkIAAIiAFGiMgdNzaGNRqieWOl4BUPuQfI7LzOIAABCAAIQABAAAIQABCAAAAAAAAAAA==

> <PUBCHEM_IUPAC_OPENEYE_NAME>
3,5,7-trihydroxy-2-[3-hydroxy-4-[(2S,3R,4S,5S,6R)-3,4,5-trihydroxy-6-(hydroxymethyl)tetrahydropyran-2-yl]oxy-phenyl]chromen-4-one

> <PUBCHEM_IUPAC_CAS_NAME>
3,5,7-trihydroxy-2-[3-hydroxy-4-[[(2S,3R,4S,5S,6R)-3,4,5-trihydroxy-6-(hydroxymethyl)-2-oxanyl]oxy]phenyl]-1-benzopyran-4-one

> <PUBCHEM_IUPAC_NAME_MARKUP>
3,5,7-trihydroxy-2-[3-hydroxy-4-[(2<I>S</I>,3<I>R</I>,4<I>S</I>,5<I>S</I>,6<I>R</I>)-3,4,5-trihydroxy-6-(hydroxymethyl)oxan-2-yl]oxyphenyl]chromen-4-one

> <PUBCHEM_IUPAC_NAME>
3,5,7-trihydroxy-2-[3-hydroxy-4-[(2S,3R,4S,5S,6R)-3,4,5-trihydroxy-6-(hydroxymethyl)oxan-2-yl]oxyphenyl]chromen-4-one

> <PUBCHEM_IUPAC_SYSTEMATIC_NAME>
2-[4-[(2S,3R,4S,5S,6R)-6-(hydroxymethyl)-3,4,5-tris(oxidanyl)oxan-2-yl]oxy-3-oxidanyl-phenyl]-3,5,7-tris(oxidanyl)chromen-4-one

> <PUBCHEM_IUPAC_TRADITIONAL_NAME>
3,5,7-trihydroxy-2-[3-hydroxy-4-[(2S,3R,4S,5S,6R)-3,4,5-trihydroxy-6-methylol-tetrahydropyran-2-yl]oxy-phenyl]chromone

> <PUBCHEM_IUPAC_INCHI>
InChI=1S/C21H20O12/c22-6-13-15(26)17(28)19(30)21(33-13)32-11-2-1-7(3-9(11)24)20-18(29)16(27)14-10(25)4-8(23)5-12(14)31-20/h1-5,13,15,17,19,21-26,28-30H,6H2/t13-,15-,17+,19-,21-/m1/s1

> <PUBCHEM_IUPAC_INCHIKEY>
OIUBYZLTFSLSBY-HMGRVEAOSA-N

> <PUBCHEM_XLOGP3_AA>
0.4

> <PUBCHEM_EXACT_MASS>
464.09547607

> <PUBCHEM_MOLECULAR_FORMULA>
C21H20O12

> <PUBCHEM_MOLECULAR_WEIGHT>
464.4

> <PUBCHEM_SMILES>
C1=CC(=C(C=C1C2=C(C(=O)C3=C(C=C(C=C3O2)O)O)O)O)O[C@H]4[C@@H]([C@H]([C@@H]([C@H](O4)CO)O)O)O

> <PUBCHEM_CONNECTIVITY_SMILES>
C1=CC(=C(C=C1C2=C(C(=O)C3=C(C=C(C=C3O2)O)O)O)O)OC4C(C(C(C(O4)CO)O)O)O

> <PUBCHEM_CACTVS_TPSA>
207

> <PUBCHEM_MONOISOTOPIC_WEIGHT>
464.09547607

> <PUBCHEM_TOTAL_CHARGE>
0

> <PUBCHEM_HEAVY_ATOM_COUNT>
33

> <PUBCHEM_ATOM_DEF_STEREO_COUNT>
5

> <PUBCHEM_ATOM_UDEF_STEREO_COUNT>
0

> <PUBCHEM_BOND_DEF_STEREO_COUNT>
0

> <PUBCHEM_BOND_UDEF_STEREO_COUNT>
0

> <PUBCHEM_ISOTOPIC_ATOM_COUNT>
0

> <PUBCHEM_COMPONENT_COUNT>
1

> <PUBCHEM_CACTVS_TAUTO_COUNT>
-1

> <PUBCHEM_COORDINATE_TYPE>
1
5
255

> <PUBCHEM_BONDANNOTATIONS>
16  18  5
19  20  8
19  21  8
17  2  5
20  23  8
21  24  8
22  23  8
22  24  8
25  26  8
26  29  8
27  28  8
27  29  8
27  30  8
28  31  8
13  3  5
30  33  8
31  32  8
32  33  8
14  4  6
15  5  6
7  25  8
7  28  8

$$$$
