11106439
  -OEChem-01202622372D

 28 31  0     1  0  0  0  0  0999 V2000
    3.4501   -1.3511    0.0000 O   0  0  0  0  0  0  0  0  0  0  0  0
    2.0379   -2.4287    0.0000 O   0  0  0  0  0  0  0  0  0  0  0  0
    4.7096    1.0424    0.0000 N   0  0  3  0  0  0  0  0  0  0  0  0
    4.4870    0.0675    0.0000 C   0  0  1  0  0  0  0  0  0  0  0  0
    3.5861   -0.3664    0.0000 C   0  0  1  0  0  0  0  0  0  0  0  0
    4.0861    1.8243    0.0000 C   0  0  1  0  0  0  0  0  0  0  0  0
    3.4792    0.8104    0.0000 C   0  0  0  0  0  0  0  0  0  0  0  0
    5.3417   -0.4401    0.0000 C   0  0  0  0  0  0  0  0  0  0  0  0
    5.6999    1.1290    0.0000 C   0  0  0  0  0  0  0  0  0  0  0  0
    6.0898    0.2146    0.0000 C   0  0  0  0  0  0  0  0  0  0  0  0
    2.6851    0.0675    0.0000 C   0  0  0  0  0  0  0  0  0  0  0  0
    3.0861    1.8243    0.0000 C   0  0  0  0  0  0  0  0  0  0  0  0
    2.4626    1.0424    0.0000 C   0  0  0  0  0  0  0  0  0  0  0  0
    2.0000   -0.6528    0.0000 C   0  0  0  0  0  0  0  0  0  0  0  0
    2.4718   -1.5278    0.0000 C   0  0  0  0  0  0  0  0  0  0  0  0
    4.2979   -0.7612    0.0000 H   0  0  0  0  0  0  0  0  0  0  0  0
    4.2752    2.6530    0.0000 H   0  0  0  0  0  0  0  0  0  0  0  0
    3.0714    1.2774    0.0000 H   0  0  0  0  0  0  0  0  0  0  0  0
    2.9092    0.5666    0.0000 H   0  0  0  0  0  0  0  0  0  0  0  0
    4.9708   -0.9370    0.0000 H   0  0  0  0  0  0  0  0  0  0  0  0
    5.7968   -0.8612    0.0000 H   0  0  0  0  0  0  0  0  0  0  0  0
    6.2926    1.3109    0.0000 H   0  0  0  0  0  0  0  0  0  0  0  0
    5.5813    1.7375    0.0000 H   0  0  0  0  0  0  0  0  0  0  0  0
    6.4468   -0.2923    0.0000 H   0  0  0  0  0  0  0  0  0  0  0  0
    6.6314    0.5163    0.0000 H   0  0  0  0  0  0  0  0  0  0  0  0
    2.8171    2.3829    0.0000 H   0  0  0  0  0  0  0  0  0  0  0  0
    1.8581    1.1804    0.0000 H   0  0  0  0  0  0  0  0  0  0  0  0
    1.3855   -0.5706    0.0000 H   0  0  0  0  0  0  0  0  0  0  0  0
  5  1  1  6  0  0  0
  1 15  1  0  0  0  0
  2 15  2  0  0  0  0
  3  4  1  0  0  0  0
  3  6  1  0  0  0  0
  3  9  1  0  0  0  0
  4  5  1  0  0  0  0
  4  8  1  0  0  0  0
  4 16  1  1  0  0  0
  5  7  1  0  0  0  0
  5 11  1  0  0  0  0
  6  7  1  0  0  0  0
  6 12  1  0  0  0  0
  6 17  1  6  0  0  0
  7 18  1  0  0  0  0
  7 19  1  0  0  0  0
  8 10  1  0  0  0  0
  8 20  1  0  0  0  0
  8 21  1  0  0  0  0
  9 10  1  0  0  0  0
  9 22  1  0  0  0  0
  9 23  1  0  0  0  0
 10 24  1  0  0  0  0
 10 25  1  0  0  0  0
 11 13  1  0  0  0  0
 11 14  2  0  0  0  0
 12 13  2  0  0  0  0
 12 26  1  0  0  0  0
 13 27  1  0  0  0  0
 14 15  1  0  0  0  0
 14 28  1  0  0  0  0
M  END
> <PUBCHEM_COMPOUND_CID>
11106439

> <PUBCHEM_COMPOUND_CANONICALIZED>
1

> <PUBCHEM_CACTVS_COMPLEXITY>
412

> <PUBCHEM_CACTVS_HBOND_ACCEPTOR>
3

> <PUBCHEM_CACTVS_HBOND_DONOR>
0

> <PUBCHEM_CACTVS_ROTATABLE_BOND>
0

> <PUBCHEM_CACTVS_SUBSKEYS>
AAADccByMAAAAAAAAAAAAAAAAAAAAWLEAAAgAAAABAAWAECAAAAAHgAAAAAADGzBgAQACAMABACIAiDSCACAAAAgAAAICAAIAEgKBAIAoQAHEAAGwACYoQOQkIIOAAAAAAAAAAAAAAAAAAAAAAAAAAAAAA==

> <PUBCHEM_IUPAC_OPENEYE_NAME>
(1S,8S,13R)-2-oxa-9-azatetracyclo[6.5.1.01,5.09,13]tetradeca-4,6-dien-3-one

> <PUBCHEM_IUPAC_CAS_NAME>
(1S,8S,13R)-2-oxa-9-azatetracyclo[6.5.1.01,5.09,13]tetradeca-4,6-dien-3-one

> <PUBCHEM_IUPAC_NAME_MARKUP>
(1<I>S</I>,8<I>S</I>,13<I>R</I>)-2-oxa-9-azatetracyclo[6.5.1.0<SUP>1,5</SUP>.0<SUP>9,13</SUP>]tetradeca-4,6-dien-3-one

> <PUBCHEM_IUPAC_NAME>
(1S,8S,13R)-2-oxa-9-azatetracyclo[6.5.1.01,5.09,13]tetradeca-4,6-dien-3-one

> <PUBCHEM_IUPAC_SYSTEMATIC_NAME>
(1S,8S,13R)-2-oxa-9-azatetracyclo[6.5.1.01,5.09,13]tetradeca-4,6-dien-3-one

> <PUBCHEM_IUPAC_TRADITIONAL_NAME>
(1S,8S,13R)-2-oxa-9-azatetracyclo[6.5.1.01,5.09,13]tetradeca-4,6-dien-3-one

> <PUBCHEM_IUPAC_INCHI>
InChI=1S/C12H13NO2/c14-11-6-8-3-4-9-7-12(8,15-11)10-2-1-5-13(9)10/h3-4,6,9-10H,1-2,5,7H2/t9-,10-,12+/m1/s1

> <PUBCHEM_IUPAC_INCHIKEY>
NBGOALXYAZVRPS-FOGDFJRCSA-N

> <PUBCHEM_XLOGP3_AA>
0.7

> <PUBCHEM_EXACT_MASS>
203.094628657

> <PUBCHEM_MOLECULAR_FORMULA>
C12H13NO2

> <PUBCHEM_MOLECULAR_WEIGHT>
203.24

> <PUBCHEM_SMILES>
C1C[C@@H]2[C@]34C[C@H](N2C1)C=CC3=CC(=O)O4

> <PUBCHEM_CONNECTIVITY_SMILES>
C1CC2C34CC(N2C1)C=CC3=CC(=O)O4

> <PUBCHEM_CACTVS_TPSA>
29.5

> <PUBCHEM_MONOISOTOPIC_WEIGHT>
203.094628657

> <PUBCHEM_TOTAL_CHARGE>
0

> <PUBCHEM_HEAVY_ATOM_COUNT>
15

> <PUBCHEM_ATOM_DEF_STEREO_COUNT>
3

> <PUBCHEM_ATOM_UDEF_STEREO_COUNT>
0

> <PUBCHEM_BOND_DEF_STEREO_COUNT>
0

> <PUBCHEM_BOND_UDEF_STEREO_COUNT>
0

> <PUBCHEM_ISOTOPIC_ATOM_COUNT>
0

> <PUBCHEM_COMPONENT_COUNT>
1

> <PUBCHEM_CACTVS_TAUTO_COUNT>
-1

> <PUBCHEM_COORDINATE_TYPE>
1
5
255

> <PUBCHEM_BONDANNOTATIONS>
5  1  6
4  16  5
6  17  6

$$$$
