164512878
  -OEChem-01202622412D

 36 39  0     0  0  0  0  0  0999 V2000
    8.8062    0.0547    0.0000 O   0  0  0  0  0  0  0  0  0  0  0  0
    2.5836   -0.0547    0.0000 O   0  0  0  0  0  0  0  0  0  0  0  0
    8.8062   -1.5547    0.0000 O   0  0  0  0  0  0  0  0  0  0  0  0
    2.5836    1.5547    0.0000 O   0  0  0  0  0  0  0  0  0  0  0  0
    5.2619   -1.7500    0.0000 O   0  0  0  0  0  0  0  0  0  0  0  0
    6.1279    1.7500    0.0000 O   0  0  0  0  0  0  0  0  0  0  0  0
    6.1279   -0.2500    0.0000 C   0  0  0  0  0  0  0  0  0  0  0  0
    5.2619    0.2500    0.0000 C   0  0  0  0  0  0  0  0  0  0  0  0
    6.1279   -1.2500    0.0000 C   0  0  0  0  0  0  0  0  0  0  0  0
    5.2619    1.2500    0.0000 C   0  0  0  0  0  0  0  0  0  0  0  0
    6.9939    0.2500    0.0000 C   0  0  0  0  0  0  0  0  0  0  0  0
    4.3959   -0.2500    0.0000 C   0  0  0  0  0  0  0  0  0  0  0  0
    7.8600   -0.2500    0.0000 C   0  0  0  0  0  0  0  0  0  0  0  0
    3.5298    0.2500    0.0000 C   0  0  0  0  0  0  0  0  0  0  0  0
    7.8600   -1.2500    0.0000 C   0  0  0  0  0  0  0  0  0  0  0  0
    3.5298    1.2500    0.0000 C   0  0  0  0  0  0  0  0  0  0  0  0
    6.9939   -1.7500    0.0000 C   0  0  0  0  0  0  0  0  0  0  0  0
    4.3959    1.7500    0.0000 C   0  0  0  0  0  0  0  0  0  0  0  0
    9.3898   -0.7500    0.0000 C   0  0  0  0  0  0  0  0  0  0  0  0
    2.0000    0.7500    0.0000 C   0  0  0  0  0  0  0  0  0  0  0  0
    5.2619   -2.7500    0.0000 C   0  0  0  0  0  0  0  0  0  0  0  0
    6.1279    2.7500    0.0000 C   0  0  0  0  0  0  0  0  0  0  0  0
    6.9939    0.8700    0.0000 H   0  0  0  0  0  0  0  0  0  0  0  0
    4.3959   -0.8700    0.0000 H   0  0  0  0  0  0  0  0  0  0  0  0
    6.9939   -2.3700    0.0000 H   0  0  0  0  0  0  0  0  0  0  0  0
    4.3959    2.3700    0.0000 H   0  0  0  0  0  0  0  0  0  0  0  0
    9.8507   -1.1647    0.0000 H   0  0  0  0  0  0  0  0  0  0  0  0
    9.8507   -0.3353    0.0000 H   0  0  0  0  0  0  0  0  0  0  0  0
    1.5391    1.1647    0.0000 H   0  0  0  0  0  0  0  0  0  0  0  0
    1.5391    0.3353    0.0000 H   0  0  0  0  0  0  0  0  0  0  0  0
    4.6419   -2.7500    0.0000 H   0  0  0  0  0  0  0  0  0  0  0  0
    5.2619   -3.3700    0.0000 H   0  0  0  0  0  0  0  0  0  0  0  0
    5.8819   -2.7500    0.0000 H   0  0  0  0  0  0  0  0  0  0  0  0
    6.7479    2.7500    0.0000 H   0  0  0  0  0  0  0  0  0  0  0  0
    6.1279    3.3700    0.0000 H   0  0  0  0  0  0  0  0  0  0  0  0
    5.5079    2.7500    0.0000 H   0  0  0  0  0  0  0  0  0  0  0  0
  1 13  1  0  0  0  0
  1 19  1  0  0  0  0
  2 14  1  0  0  0  0
  2 20  1  0  0  0  0
  3 15  1  0  0  0  0
  3 19  1  0  0  0  0
  4 16  1  0  0  0  0
  4 20  1  0  0  0  0
  5  9  1  0  0  0  0
  5 21  1  0  0  0  0
  6 10  1  0  0  0  0
  6 22  1  0  0  0  0
  7  8  1  0  0  0  0
  7  9  1  0  0  0  0
  7 11  2  0  0  0  0
  8 10  1  0  0  0  0
  8 12  2  0  0  0  0
  9 17  2  0  0  0  0
 10 18  2  0  0  0  0
 11 13  1  0  0  0  0
 11 23  1  0  0  0  0
 12 14  1  0  0  0  0
 12 24  1  0  0  0  0
 13 15  2  0  0  0  0
 14 16  2  0  0  0  0
 15 17  1  0  0  0  0
 16 18  1  0  0  0  0
 17 25  1  0  0  0  0
 18 26  1  0  0  0  0
 19 27  1  0  0  0  0
 19 28  1  0  0  0  0
 20 29  1  0  0  0  0
 20 30  1  0  0  0  0
 21 31  1  0  0  0  0
 21 32  1  0  0  0  0
 21 33  1  0  0  0  0
 22 34  1  0  0  0  0
 22 35  1  0  0  0  0
 22 36  1  0  0  0  0
M  END
> <PUBCHEM_COMPOUND_CID>
164512878

> <PUBCHEM_COMPOUND_CANONICALIZED>
1

> <PUBCHEM_CACTVS_COMPLEXITY>
355

> <PUBCHEM_CACTVS_HBOND_ACCEPTOR>
6

> <PUBCHEM_CACTVS_HBOND_DONOR>
0

> <PUBCHEM_CACTVS_ROTATABLE_BOND>
3

> <PUBCHEM_CACTVS_SUBSKEYS>
AAADccB4OAAAAAAAAAAAAAAAAAAAASJAAAAwYAAAAAAAAEgBQAAAGgAAAAAADASAmAMyDoAABACAAiBCAAACCAAgIAAAiAAGiIgdJyKEMBqgMCIlwBUOqAfA4PwOoQABCAAIQABCAAIQABCAAAAAAAAAAA==

> <PUBCHEM_IUPAC_OPENEYE_NAME>
5-methoxy-6-(6-methoxy-1,3-benzodioxol-5-yl)-1,3-benzodioxole

> <PUBCHEM_IUPAC_CAS_NAME>
5-methoxy-6-(6-methoxy-1,3-benzodioxol-5-yl)-1,3-benzodioxole

> <PUBCHEM_IUPAC_NAME_MARKUP>
5-methoxy-6-(6-methoxy-1,3-benzodioxol-5-yl)-1,3-benzodioxole

> <PUBCHEM_IUPAC_NAME>
5-methoxy-6-(6-methoxy-1,3-benzodioxol-5-yl)-1,3-benzodioxole

> <PUBCHEM_IUPAC_SYSTEMATIC_NAME>
5-methoxy-6-(6-methoxy-1,3-benzodioxol-5-yl)-1,3-benzodioxole

> <PUBCHEM_IUPAC_TRADITIONAL_NAME>
5-methoxy-6-(6-methoxy-1,3-benzodioxol-5-yl)-1,3-benzodioxole

> <PUBCHEM_IUPAC_INCHI>
InChI=1S/C16H14O6/c1-17-11-5-15-13(19-7-21-15)3-9(11)10-4-14-16(22-8-20-14)6-12(10)18-2/h3-6H,7-8H2,1-2H3

> <PUBCHEM_IUPAC_INCHIKEY>
ZIDKFGORINJUGX-UHFFFAOYSA-N

> <PUBCHEM_XLOGP3_AA>
3.1

> <PUBCHEM_EXACT_MASS>
302.07903816

> <PUBCHEM_MOLECULAR_FORMULA>
C16H14O6

> <PUBCHEM_MOLECULAR_WEIGHT>
302.28

> <PUBCHEM_SMILES>
COC1=CC2=C(C=C1C3=CC4=C(C=C3OC)OCO4)OCO2

> <PUBCHEM_CONNECTIVITY_SMILES>
COC1=CC2=C(C=C1C3=CC4=C(C=C3OC)OCO4)OCO2

> <PUBCHEM_CACTVS_TPSA>
55.4

> <PUBCHEM_MONOISOTOPIC_WEIGHT>
302.07903816

> <PUBCHEM_TOTAL_CHARGE>
0

> <PUBCHEM_HEAVY_ATOM_COUNT>
22

> <PUBCHEM_ATOM_DEF_STEREO_COUNT>
0

> <PUBCHEM_ATOM_UDEF_STEREO_COUNT>
0

> <PUBCHEM_BOND_DEF_STEREO_COUNT>
0

> <PUBCHEM_BOND_UDEF_STEREO_COUNT>
0

> <PUBCHEM_ISOTOPIC_ATOM_COUNT>
0

> <PUBCHEM_COMPONENT_COUNT>
1

> <PUBCHEM_CACTVS_TAUTO_COUNT>
-1

> <PUBCHEM_COORDINATE_TYPE>
1
5
255

> <PUBCHEM_BONDANNOTATIONS>
10  18  8
11  13  8
12  14  8
13  15  8
14  16  8
15  17  8
16  18  8
7  11  8
7  9  8
8  10  8
8  12  8
9  17  8

$$$$
