504068
  -OEChem-01202622262D

 25 27  0     0  0  0  0  0  0999 V2000
    8.0321    0.6827    0.0000 O   0  0  0  0  0  0  0  0  0  0  0  0
    7.0864   -2.2152    0.0000 O   0  0  0  0  0  0  0  0  0  0  0  0
    4.5274    1.5952    0.0000 N   0  0  0  0  0  0  0  0  0  0  0  0
    5.0274    0.0564    0.0000 C   0  0  0  0  0  0  0  0  0  0  0  0
    4.0274    0.0564    0.0000 C   0  0  0  0  0  0  0  0  0  0  0  0
    5.3364    1.0074    0.0000 C   0  0  0  0  0  0  0  0  0  0  0  0
    3.7183    1.0074    0.0000 C   0  0  0  0  0  0  0  0  0  0  0  0
    5.7123   -0.7284    0.0000 C   0  0  0  0  0  0  0  0  0  0  0  0
    6.3518    1.2397    0.0000 C   0  0  0  0  0  0  0  0  0  0  0  0
    3.3424   -0.7284    0.0000 C   0  0  0  0  0  0  0  0  0  0  0  0
    6.7328   -0.5196    0.0000 C   0  0  0  0  0  0  0  0  0  0  0  0
    2.7029    1.2397    0.0000 C   0  0  0  0  0  0  0  0  0  0  0  0
    7.0547    0.4710    0.0000 C   0  0  0  0  0  0  0  0  0  0  0  0
    2.3219   -0.5196    0.0000 C   0  0  0  0  0  0  0  0  0  0  0  0
    2.0000    0.4710    0.0000 C   0  0  0  0  0  0  0  0  0  0  0  0
    7.3991   -1.2654    0.0000 C   0  0  0  0  0  0  0  0  0  0  0  0
    4.5274    2.2152    0.0000 H   0  0  0  0  0  0  0  0  0  0  0  0
    5.5139   -1.3158    0.0000 H   0  0  0  0  0  0  0  0  0  0  0  0
    6.5365    1.8315    0.0000 H   0  0  0  0  0  0  0  0  0  0  0  0
    3.5408   -1.3158    0.0000 H   0  0  0  0  0  0  0  0  0  0  0  0
    2.5182    1.8315    0.0000 H   0  0  0  0  0  0  0  0  0  0  0  0
    1.9088   -0.9820    0.0000 H   0  0  0  0  0  0  0  0  0  0  0  0
    1.3941    0.6022    0.0000 H   0  0  0  0  0  0  0  0  0  0  0  0
    8.0060   -1.1388    0.0000 H   0  0  0  0  0  0  0  0  0  0  0  0
    8.2214    1.2731    0.0000 H   0  0  0  0  0  0  0  0  0  0  0  0
  1 13  1  0  0  0  0
  1 25  1  0  0  0  0
  2 16  2  0  0  0  0
  3  6  1  0  0  0  0
  3  7  1  0  0  0  0
  3 17  1  0  0  0  0
  4  5  1  0  0  0  0
  4  6  2  0  0  0  0
  4  8  1  0  0  0  0
  5  7  1  0  0  0  0
  5 10  2  0  0  0  0
  6  9  1  0  0  0  0
  7 12  2  0  0  0  0
  8 11  2  0  0  0  0
  8 18  1  0  0  0  0
  9 13  2  0  0  0  0
  9 19  1  0  0  0  0
 10 14  1  0  0  0  0
 10 20  1  0  0  0  0
 11 13  1  0  0  0  0
 11 16  1  0  0  0  0
 12 15  1  0  0  0  0
 12 21  1  0  0  0  0
 14 15  2  0  0  0  0
 14 22  1  0  0  0  0
 15 23  1  0  0  0  0
 16 24  1  0  0  0  0
M  END
> <PUBCHEM_COMPOUND_CID>
504068

> <PUBCHEM_COMPOUND_CANONICALIZED>
1

> <PUBCHEM_CACTVS_COMPLEXITY>
281

> <PUBCHEM_CACTVS_HBOND_ACCEPTOR>
2

> <PUBCHEM_CACTVS_HBOND_DONOR>
2

> <PUBCHEM_CACTVS_ROTATABLE_BOND>
1

> <PUBCHEM_CACTVS_SUBSKEYS>
AAADccByMAAAAAAAAAAAAAAAAAAAAWAAAAAwYAAAAAAAAFgB/AAAHgAQCAAADAyhngIwxvLJkgCoAyxyxACCgCAlIiAImSE2bNgIJvbClZOEcUhm8BnI2YeY2fOeqAACAgAKAABQAAQEABQAAAAAAAAAAA==

> <PUBCHEM_IUPAC_OPENEYE_NAME>
2-hydroxy-9H-carbazole-3-carbaldehyde

> <PUBCHEM_IUPAC_CAS_NAME>
2-hydroxy-9H-carbazole-3-carboxaldehyde

> <PUBCHEM_IUPAC_NAME_MARKUP>
2-hydroxy-9<I>H</I>-carbazole-3-carbaldehyde

> <PUBCHEM_IUPAC_NAME>
2-hydroxy-9H-carbazole-3-carbaldehyde

> <PUBCHEM_IUPAC_SYSTEMATIC_NAME>
2-oxidanyl-9H-carbazole-3-carbaldehyde

> <PUBCHEM_IUPAC_TRADITIONAL_NAME>
2-hydroxy-9H-carbazole-3-carbaldehyde

> <PUBCHEM_IUPAC_INCHI>
InChI=1S/C13H9NO2/c15-7-8-5-10-9-3-1-2-4-11(9)14-12(10)6-13(8)16/h1-7,14,16H

> <PUBCHEM_IUPAC_INCHIKEY>
NEAHWGSQUXSRNW-UHFFFAOYSA-N

> <PUBCHEM_XLOGP3_AA>
3

> <PUBCHEM_EXACT_MASS>
211.063328530

> <PUBCHEM_MOLECULAR_FORMULA>
C13H9NO2

> <PUBCHEM_MOLECULAR_WEIGHT>
211.22

> <PUBCHEM_SMILES>
C1=CC=C2C(=C1)C3=C(N2)C=C(C(=C3)C=O)O

> <PUBCHEM_CONNECTIVITY_SMILES>
C1=CC=C2C(=C1)C3=C(N2)C=C(C(=C3)C=O)O

> <PUBCHEM_CACTVS_TPSA>
53.1

> <PUBCHEM_MONOISOTOPIC_WEIGHT>
211.063328530

> <PUBCHEM_TOTAL_CHARGE>
0

> <PUBCHEM_HEAVY_ATOM_COUNT>
16

> <PUBCHEM_ATOM_DEF_STEREO_COUNT>
0

> <PUBCHEM_ATOM_UDEF_STEREO_COUNT>
0

> <PUBCHEM_BOND_DEF_STEREO_COUNT>
0

> <PUBCHEM_BOND_UDEF_STEREO_COUNT>
0

> <PUBCHEM_ISOTOPIC_ATOM_COUNT>
0

> <PUBCHEM_COMPONENT_COUNT>
1

> <PUBCHEM_CACTVS_TAUTO_COUNT>
-1

> <PUBCHEM_COORDINATE_TYPE>
1
5
255

> <PUBCHEM_BONDANNOTATIONS>
10  14  8
11  13  8
12  15  8
14  15  8
3  6  8
3  7  8
4  5  8
4  6  8
4  8  8
5  10  8
5  7  8
6  9  8
7  12  8
8  11  8
9  13  8

$$$$
