176482725
  -OEChem-01202622412D

 34 32  0     1  0  0  0  0  0999 V2000
    0.0000    4.4650    0.0000 Cl  0  0  0  0  0  0  0  0  0  0  0  0
    5.6718    0.0000    0.0000 Cl  0  0  0  0  0  0  0  0  0  0  0  0
    5.3426    6.1200    0.0000 S   0  0  0  0  0  0  0  0  0  0  0  0
    5.3426    8.1200    0.0000 O   0  0  0  0  0  0  0  0  0  0  0  0
    3.6106    9.1200    0.0000 O   0  0  0  0  0  0  0  0  0  0  0  0
    7.0747    3.1200    0.0000 N   0  0  0  0  0  0  0  0  0  0  0  0
    7.9407    4.6200    0.0000 N   0  0  0  0  0  0  0  0  0  0  0  0
    5.3426    3.1200    0.0000 N   0  0  0  0  0  0  0  0  0  0  0  0
    4.4766    7.6200    0.0000 C   0  0  3  0  0  0  0  0  0  0  0  0
    4.4766    6.6200    0.0000 C   0  0  0  0  0  0  0  0  0  0  0  0
    5.3426    5.1200    0.0000 C   0  0  0  0  0  0  0  0  0  0  0  0
    6.2087    4.6200    0.0000 C   0  0  0  0  0  0  0  0  0  0  0  0
    3.6106    8.1200    0.0000 C   0  0  0  0  0  0  0  0  0  0  0  0
    6.2087    3.6200    0.0000 C   0  0  0  0  0  0  0  0  0  0  0  0
    7.0747    5.1200    0.0000 C   0  0  0  0  0  0  0  0  0  0  0  0
    7.9407    3.6200    0.0000 C   0  0  0  0  0  0  0  0  0  0  0  0
    8.8067    3.1200    0.0000 C   0  0  0  0  0  0  0  0  0  0  0  0
    4.4766    8.2400    0.0000 H   0  0  0  0  0  0  0  0  0  0  0  0
    3.8660    6.7277    0.0000 H   0  0  0  0  0  0  0  0  0  0  0  0
    4.2646    6.0374    0.0000 H   0  0  0  0  0  0  0  0  0  0  0  0
    4.7321    5.2277    0.0000 H   0  0  0  0  0  0  0  0  0  0  0  0
    5.1306    4.5374    0.0000 H   0  0  0  0  0  0  0  0  0  0  0  0
    3.0000    8.2277    0.0000 H   0  0  0  0  0  0  0  0  0  0  0  0
    3.3985    7.5374    0.0000 H   0  0  0  0  0  0  0  0  0  0  0  0
    7.0747    5.7400    0.0000 H   0  0  0  0  0  0  0  0  0  0  0  0
    5.3426    8.7400    0.0000 H   0  0  0  0  0  0  0  0  0  0  0  0
    3.0737    9.4300    0.0000 H   0  0  0  0  0  0  0  0  0  0  0  0
    5.3426    2.5000    0.0000 H   0  0  0  0  0  0  0  0  0  0  0  0
    4.8057    3.4300    0.0000 H   0  0  0  0  0  0  0  0  0  0  0  0
    8.4967    2.5831    0.0000 H   0  0  0  0  0  0  0  0  0  0  0  0
    9.3437    2.8100    0.0000 H   0  0  0  0  0  0  0  0  0  0  0  0
    9.1167    3.6569    0.0000 H   0  0  0  0  0  0  0  0  0  0  0  0
    1.0000    4.4650    0.0000 H   0  0  0  0  0  0  0  0  0  0  0  0
    6.6718    0.0000    0.0000 H   0  0  0  0  0  0  0  0  0  0  0  0
  1 33  1  0  0  0  0
  2 34  1  0  0  0  0
  3 10  1  0  0  0  0
  3 11  1  0  0  0  0
  4  9  1  0  0  0  0
  4 26  1  0  0  0  0
  5 13  1  0  0  0  0
  5 27  1  0  0  0  0
  6 14  2  0  0  0  0
  6 16  1  0  0  0  0
  7 15  1  0  0  0  0
  7 16  2  0  0  0  0
  8 14  1  0  0  0  0
  8 28  1  0  0  0  0
  8 29  1  0  0  0  0
  9 10  1  0  0  0  0
  9 13  1  0  0  0  0
  9 18  1  0  0  0  0
 10 19  1  0  0  0  0
 10 20  1  0  0  0  0
 11 12  1  0  0  0  0
 11 21  1  0  0  0  0
 11 22  1  0  0  0  0
 12 14  1  0  0  0  0
 12 15  2  0  0  0  0
 13 23  1  0  0  0  0
 13 24  1  0  0  0  0
 15 25  1  0  0  0  0
 16 17  1  0  0  0  0
 17 30  1  0  0  0  0
 17 31  1  0  0  0  0
 17 32  1  0  0  0  0
M  END
> <PUBCHEM_COMPOUND_CID>
176482725

> <PUBCHEM_COMPOUND_CANONICALIZED>
1

> <PUBCHEM_CACTVS_COMPLEXITY>
185

> <PUBCHEM_CACTVS_HBOND_ACCEPTOR>
6

> <PUBCHEM_CACTVS_HBOND_DONOR>
5

> <PUBCHEM_CACTVS_ROTATABLE_BOND>
5

> <PUBCHEM_CACTVS_SUBSKEYS>
AAADceBzMABGAAAAAAAAAAAAAAAAAAAAAAAsAAAAAAAAAAABgAAAHgQQCAAADBTl2wavsJZIEgigAhJnZACAgCkRALABUCA4RBCBGIBgSUAERAgIAALhACAAAAAAAAAAAAAAAAAAAAAAAAAAAAAAAAAAAA==

> <PUBCHEM_IUPAC_OPENEYE_NAME>
3-[(4-amino-2-methyl-pyrimidin-5-yl)methylsulfanyl]propane-1,2-diol;dihydrochloride

> <PUBCHEM_IUPAC_CAS_NAME>
3-[(4-amino-2-methyl-5-pyrimidinyl)methylthio]propane-1,2-diol;dihydrochloride

> <PUBCHEM_IUPAC_NAME_MARKUP>
3-[(4-amino-2-methylpyrimidin-5-yl)methylsulfanyl]propane-1,2-diol;dihydrochloride

> <PUBCHEM_IUPAC_NAME>
3-[(4-amino-2-methylpyrimidin-5-yl)methylsulfanyl]propane-1,2-diol;dihydrochloride

> <PUBCHEM_IUPAC_SYSTEMATIC_NAME>
3-[(4-azanyl-2-methyl-pyrimidin-5-yl)methylsulfanyl]propane-1,2-diol;dihydrochloride

> <PUBCHEM_IUPAC_TRADITIONAL_NAME>
3-[(4-amino-2-methyl-pyrimidin-5-yl)methylthio]propane-1,2-diol;dihydrochloride

> <PUBCHEM_IUPAC_INCHI>
InChI=1S/C9H15N3O2S.2ClH/c1-6-11-2-7(9(10)12-6)4-15-5-8(14)3-13;;/h2,8,13-14H,3-5H2,1H3,(H2,10,11,12);2*1H

> <PUBCHEM_IUPAC_INCHIKEY>
NOFKSRLKTQQMBG-UHFFFAOYSA-N

> <PUBCHEM_EXACT_MASS>
301.0418534

> <PUBCHEM_MOLECULAR_FORMULA>
C9H17Cl2N3O2S

> <PUBCHEM_MOLECULAR_WEIGHT>
302.22

> <PUBCHEM_SMILES>
CC1=NC=C(C(=N1)N)CSCC(CO)O.Cl.Cl

> <PUBCHEM_CONNECTIVITY_SMILES>
CC1=NC=C(C(=N1)N)CSCC(CO)O.Cl.Cl

> <PUBCHEM_CACTVS_TPSA>
118

> <PUBCHEM_MONOISOTOPIC_WEIGHT>
301.0418534

> <PUBCHEM_TOTAL_CHARGE>
0

> <PUBCHEM_HEAVY_ATOM_COUNT>
17

> <PUBCHEM_ATOM_DEF_STEREO_COUNT>
0

> <PUBCHEM_ATOM_UDEF_STEREO_COUNT>
1

> <PUBCHEM_BOND_DEF_STEREO_COUNT>
0

> <PUBCHEM_BOND_UDEF_STEREO_COUNT>
0

> <PUBCHEM_ISOTOPIC_ATOM_COUNT>
0

> <PUBCHEM_COMPONENT_COUNT>
3

> <PUBCHEM_CACTVS_TAUTO_COUNT>
-1

> <PUBCHEM_COORDINATE_TYPE>
1
5
255

> <PUBCHEM_BONDANNOTATIONS>
12  14  8
12  15  8
9  4  3
6  14  8
6  16  8
7  15  8
7  16  8

$$$$
