114485
  -OEChem-01202622202D

 18 18  0     1  0  0  0  0  0999 V2000
    4.3060   -1.2022    0.0000 O   0  0  0  0  0  0  0  0  0  0  0  0
    2.5989    0.5049    0.0000 O   0  0  0  0  0  0  0  0  0  0  0  0
    4.7543    1.4709    0.0000 O   0  0  0  0  0  0  0  0  0  0  0  0
    6.6861    0.9532    0.0000 O   0  0  0  0  0  0  0  0  0  0  0  0
    2.5989   -1.9093    0.0000 O   0  0  0  0  0  0  0  0  0  0  0  0
    4.3060   -0.2022    0.0000 C   0  0  3  0  0  0  0  0  0  0  0  0
    3.3060   -0.2022    0.0000 C   0  0  3  0  0  0  0  0  0  0  0  0
    5.0131    0.5049    0.0000 C   0  0  3  0  0  0  0  0  0  0  0  0
    3.3060   -1.2022    0.0000 C   0  0  0  0  0  0  0  0  0  0  0  0
    5.9790    0.2461    0.0000 C   0  0  0  0  0  0  0  0  0  0  0  0
    4.8788   -0.4394    0.0000 H   0  0  0  0  0  0  0  0  0  0  0  0
    2.7332   -0.4394    0.0000 H   0  0  0  0  0  0  0  0  0  0  0  0
    5.4515    0.9433    0.0000 H   0  0  0  0  0  0  0  0  0  0  0  0
    5.7170   -0.3158    0.0000 H   0  0  0  0  0  0  0  0  0  0  0  0
    6.4869   -0.1095    0.0000 H   0  0  0  0  0  0  0  0  0  0  0  0
    2.0000    0.3445    0.0000 H   0  0  0  0  0  0  0  0  0  0  0  0
    5.1927    1.9093    0.0000 H   0  0  0  0  0  0  0  0  0  0  0  0
    7.2850    0.7928    0.0000 H   0  0  0  0  0  0  0  0  0  0  0  0
  1  6  1  0  0  0  0
  1  9  1  0  0  0  0
  2  7  1  0  0  0  0
  2 16  1  0  0  0  0
  3  8  1  0  0  0  0
  3 17  1  0  0  0  0
  4 10  1  0  0  0  0
  4 18  1  0  0  0  0
  5  9  2  0  0  0  0
  6  7  1  0  0  0  0
  6  8  1  0  0  0  0
  6 11  1  0  0  0  0
  7  9  1  0  0  0  0
  7 12  1  0  0  0  0
  8 10  1  0  0  0  0
  8 13  1  0  0  0  0
 10 14  1  0  0  0  0
 10 15  1  0  0  0  0
M  END
> <PUBCHEM_COMPOUND_CID>
114485

> <PUBCHEM_COMPOUND_CANONICALIZED>
1

> <PUBCHEM_CACTVS_COMPLEXITY>
145

> <PUBCHEM_CACTVS_HBOND_ACCEPTOR>
5

> <PUBCHEM_CACTVS_HBOND_DONOR>
3

> <PUBCHEM_CACTVS_ROTATABLE_BOND>
2

> <PUBCHEM_CACTVS_SUBSKEYS>
AAADccBgOAAAAAAAAAAAAAAAAABIAAAAAAAAAAAAAAAAAAAAAAAAGgAACAAACBSggAIACAAABgAIAACQCAIAAAAAAAAAAAFAAAABEBYAAAACQAAFIAADAADKJAAAAAAAAAAAAAAAAAAAAAAAAAAAAAAAAA==

> <PUBCHEM_IUPAC_OPENEYE_NAME>
4-(1,2-dihydroxyethyl)-3-hydroxy-oxetan-2-one

> <PUBCHEM_IUPAC_CAS_NAME>
4-(1,2-dihydroxyethyl)-3-hydroxy-2-oxetanone

> <PUBCHEM_IUPAC_NAME_MARKUP>
4-(1,2-dihydroxyethyl)-3-hydroxyoxetan-2-one

> <PUBCHEM_IUPAC_NAME>
4-(1,2-dihydroxyethyl)-3-hydroxyoxetan-2-one

> <PUBCHEM_IUPAC_SYSTEMATIC_NAME>
4-[1,2-bis(oxidanyl)ethyl]-3-oxidanyl-oxetan-2-one

> <PUBCHEM_IUPAC_TRADITIONAL_NAME>
4-(1,2-dihydroxyethyl)-3-hydroxy-oxetan-2-one

> <PUBCHEM_IUPAC_INCHI>
InChI=1S/C5H8O5/c6-1-2(7)4-3(8)5(9)10-4/h2-4,6-8H,1H2

> <PUBCHEM_IUPAC_INCHIKEY>
GRYOZULSNCMRHE-UHFFFAOYSA-N

> <PUBCHEM_XLOGP3_AA>
-1.4

> <PUBCHEM_EXACT_MASS>
148.03717335

> <PUBCHEM_MOLECULAR_FORMULA>
C5H8O5

> <PUBCHEM_MOLECULAR_WEIGHT>
148.11

> <PUBCHEM_SMILES>
C(C(C1C(C(=O)O1)O)O)O

> <PUBCHEM_CONNECTIVITY_SMILES>
C(C(C1C(C(=O)O1)O)O)O

> <PUBCHEM_CACTVS_TPSA>
87

> <PUBCHEM_MONOISOTOPIC_WEIGHT>
148.03717335

> <PUBCHEM_TOTAL_CHARGE>
0

> <PUBCHEM_HEAVY_ATOM_COUNT>
10

> <PUBCHEM_ATOM_DEF_STEREO_COUNT>
0

> <PUBCHEM_ATOM_UDEF_STEREO_COUNT>
3

> <PUBCHEM_BOND_DEF_STEREO_COUNT>
0

> <PUBCHEM_BOND_UDEF_STEREO_COUNT>
0

> <PUBCHEM_ISOTOPIC_ATOM_COUNT>
0

> <PUBCHEM_COMPONENT_COUNT>
1

> <PUBCHEM_CACTVS_TAUTO_COUNT>
-1

> <PUBCHEM_COORDINATE_TYPE>
1
5
255

> <PUBCHEM_BONDANNOTATIONS>
6  1  3
7  2  3
8  3  3

$$$$
