56842239
  -OEChem-01202614002D

158155  0     0  0  0  0  0  0999 V2000
    0.5369    6.8700    0.0000 O   0  0  0  0  0  0  0  0  0  0  0  0
    1.4030    5.3700    0.0000 O   0  0  0  0  0  0  0  0  0  0  0  0
   14.0031    1.5000    0.0000 O   0  0  0  0  0  0  0  0  0  0  0  0
   14.8691    0.0000    0.0000 O   0  0  0  0  0  0  0  0  0  0  0  0
   14.8691   16.7400    0.0000 O   0  0  0  0  0  0  0  0  0  0  0  0
   15.7352   15.2400    0.0000 O   0  0  0  0  0  0  0  0  0  0  0  0
    4.8671    6.3700    0.0000 C   0  0  0  0  0  0  0  0  0  0  0  0
    5.7331    6.8700    0.0000 C   0  0  0  0  0  0  0  0  0  0  0  0
    4.0010    6.8700    0.0000 C   0  0  0  0  0  0  0  0  0  0  0  0
    6.5991    6.3700    0.0000 C   0  0  0  0  0  0  0  0  0  0  0  0
    3.1350    6.3700    0.0000 C   0  0  0  0  0  0  0  0  0  0  0  0
    7.4651    6.8700    0.0000 C   0  0  0  0  0  0  0  0  0  0  0  0
    2.2690    6.8700    0.0000 C   0  0  0  0  0  0  0  0  0  0  0  0
    8.3312    6.3700    0.0000 C   0  0  0  0  0  0  0  0  0  0  0  0
    1.4030    6.3700    0.0000 C   0  0  0  0  0  0  0  0  0  0  0  0
    9.1972    6.8700    0.0000 C   0  0  0  0  0  0  0  0  0  0  0  0
    9.1972    7.8700    0.0000 C   0  0  0  0  0  0  0  0  0  0  0  0
   10.0632    8.3700    0.0000 C   0  0  0  0  0  0  0  0  0  0  0  0
   10.0632    9.3700    0.0000 C   0  0  0  0  0  0  0  0  0  0  0  0
    9.1972    9.8700    0.0000 C   0  0  0  0  0  0  0  0  0  0  0  0
    9.1972   10.8700    0.0000 C   0  0  0  0  0  0  0  0  0  0  0  0
    8.3312   11.3700    0.0000 C   0  0  0  0  0  0  0  0  0  0  0  0
    7.4651   10.8700    0.0000 C   0  0  0  0  0  0  0  0  0  0  0  0
   16.6012    1.0000    0.0000 C   0  0  0  0  0  0  0  0  0  0  0  0
   17.4672    1.5000    0.0000 C   0  0  0  0  0  0  0  0  0  0  0  0
    6.5991   11.3700    0.0000 C   0  0  0  0  0  0  0  0  0  0  0  0
   15.7352    1.5000    0.0000 C   0  0  0  0  0  0  0  0  0  0  0  0
   18.3332    1.0000    0.0000 C   0  0  0  0  0  0  0  0  0  0  0  0
   19.1993    1.5000    0.0000 C   0  0  0  0  0  0  0  0  0  0  0  0
   19.1993    2.5000    0.0000 C   0  0  0  0  0  0  0  0  0  0  0  0
   14.8691    1.0000    0.0000 C   0  0  0  0  0  0  0  0  0  0  0  0
   20.0653    3.0000    0.0000 C   0  0  0  0  0  0  0  0  0  0  0  0
   20.0653    4.0000    0.0000 C   0  0  0  0  0  0  0  0  0  0  0  0
   19.1993    4.5000    0.0000 C   0  0  0  0  0  0  0  0  0  0  0  0
   19.1993    5.5000    0.0000 C   0  0  0  0  0  0  0  0  0  0  0  0
   17.4672    5.5000    0.0000 C   0  0  0  0  0  0  0  0  0  0  0  0
   18.3332    6.0000    0.0000 C   0  0  0  0  0  0  0  0  0  0  0  0
   17.4672   16.2400    0.0000 C   0  0  0  0  0  0  0  0  0  0  0  0
   19.1993   15.2400    0.0000 C   0  0  0  0  0  0  0  0  0  0  0  0
   16.6012    6.0000    0.0000 C   0  0  0  0  0  0  0  0  0  0  0  0
   19.1993   13.2400    0.0000 C   0  0  0  0  0  0  0  0  0  0  0  0
   17.4672   12.2400    0.0000 C   0  0  0  0  0  0  0  0  0  0  0  0
   18.3332   16.7400    0.0000 C   0  0  0  0  0  0  0  0  0  0  0  0
   19.1993   16.2400    0.0000 C   0  0  0  0  0  0  0  0  0  0  0  0
   16.6012   16.7400    0.0000 C   0  0  0  0  0  0  0  0  0  0  0  0
   20.0653   14.7400    0.0000 C   0  0  0  0  0  0  0  0  0  0  0  0
   15.7352    4.5000    0.0000 C   0  0  0  0  0  0  0  0  0  0  0  0
   15.7352    5.5000    0.0000 C   0  0  0  0  0  0  0  0  0  0  0  0
   20.0653   13.7400    0.0000 C   0  0  0  0  0  0  0  0  0  0  0  0
   19.1993   12.2400    0.0000 C   0  0  0  0  0  0  0  0  0  0  0  0
   18.3332   11.7400    0.0000 C   0  0  0  0  0  0  0  0  0  0  0  0
   15.7352   13.2400    0.0000 C   0  0  0  0  0  0  0  0  0  0  0  0
   16.6012   11.7400    0.0000 C   0  0  0  0  0  0  0  0  0  0  0  0
   15.7352   12.2400    0.0000 C   0  0  0  0  0  0  0  0  0  0  0  0
   14.8691   13.7400    0.0000 C   0  0  0  0  0  0  0  0  0  0  0  0
   14.8691    4.0000    0.0000 C   0  0  0  0  0  0  0  0  0  0  0  0
   14.0031   12.2400    0.0000 C   0  0  0  0  0  0  0  0  0  0  0  0
   14.0031   13.2400    0.0000 C   0  0  0  0  0  0  0  0  0  0  0  0
   14.0031    4.5000    0.0000 C   0  0  0  0  0  0  0  0  0  0  0  0
   14.0031    5.5000    0.0000 C   0  0  0  0  0  0  0  0  0  0  0  0
   13.1371   11.7400    0.0000 C   0  0  0  0  0  0  0  0  0  0  0  0
   15.7352   16.2400    0.0000 C   0  0  0  0  0  0  0  0  0  0  0  0
   14.0031   10.2400    0.0000 C   0  0  0  0  0  0  0  0  0  0  0  0
   13.1371   10.7400    0.0000 C   0  0  0  0  0  0  0  0  0  0  0  0
   13.1371    6.0000    0.0000 C   0  0  0  0  0  0  0  0  0  0  0  0
   14.0031    9.2400    0.0000 C   0  0  0  0  0  0  0  0  0  0  0  0
    4.4685    5.8950    0.0000 H   0  0  0  0  0  0  0  0  0  0  0  0
    5.2656    5.8950    0.0000 H   0  0  0  0  0  0  0  0  0  0  0  0
    6.1316    7.3450    0.0000 H   0  0  0  0  0  0  0  0  0  0  0  0
    5.3346    7.3450    0.0000 H   0  0  0  0  0  0  0  0  0  0  0  0
    4.3996    7.3450    0.0000 H   0  0  0  0  0  0  0  0  0  0  0  0
    3.6025    7.3450    0.0000 H   0  0  0  0  0  0  0  0  0  0  0  0
    6.2006    5.8950    0.0000 H   0  0  0  0  0  0  0  0  0  0  0  0
    6.9976    5.8950    0.0000 H   0  0  0  0  0  0  0  0  0  0  0  0
    2.7365    5.8950    0.0000 H   0  0  0  0  0  0  0  0  0  0  0  0
    3.5335    5.8950    0.0000 H   0  0  0  0  0  0  0  0  0  0  0  0
    7.8637    7.3450    0.0000 H   0  0  0  0  0  0  0  0  0  0  0  0
    7.0666    7.3450    0.0000 H   0  0  0  0  0  0  0  0  0  0  0  0
    2.6675    7.3450    0.0000 H   0  0  0  0  0  0  0  0  0  0  0  0
    1.8705    7.3450    0.0000 H   0  0  0  0  0  0  0  0  0  0  0  0
    8.3312    5.7500    0.0000 H   0  0  0  0  0  0  0  0  0  0  0  0
    9.7341    6.5600    0.0000 H   0  0  0  0  0  0  0  0  0  0  0  0
    8.9851    8.4526    0.0000 H   0  0  0  0  0  0  0  0  0  0  0  0
    8.5866    7.7623    0.0000 H   0  0  0  0  0  0  0  0  0  0  0  0
    0.0000    6.5600    0.0000 H   0  0  0  0  0  0  0  0  0  0  0  0
   10.6002    8.0600    0.0000 H   0  0  0  0  0  0  0  0  0  0  0  0
   10.6002    9.6800    0.0000 H   0  0  0  0  0  0  0  0  0  0  0  0
    8.5866    9.9777    0.0000 H   0  0  0  0  0  0  0  0  0  0  0  0
    8.9851    9.2874    0.0000 H   0  0  0  0  0  0  0  0  0  0  0  0
    9.7341   11.1800    0.0000 H   0  0  0  0  0  0  0  0  0  0  0  0
    8.3312   11.9900    0.0000 H   0  0  0  0  0  0  0  0  0  0  0  0
    7.0666   10.3951    0.0000 H   0  0  0  0  0  0  0  0  0  0  0  0
    7.8637   10.3951    0.0000 H   0  0  0  0  0  0  0  0  0  0  0  0
   16.2027    0.5251    0.0000 H   0  0  0  0  0  0  0  0  0  0  0  0
   16.9997    0.5251    0.0000 H   0  0  0  0  0  0  0  0  0  0  0  0
   17.8657    1.9750    0.0000 H   0  0  0  0  0  0  0  0  0  0  0  0
   17.0687    1.9750    0.0000 H   0  0  0  0  0  0  0  0  0  0  0  0
    6.9091   11.9069    0.0000 H   0  0  0  0  0  0  0  0  0  0  0  0
    6.0622   11.6800    0.0000 H   0  0  0  0  0  0  0  0  0  0  0  0
    6.2891   10.8331    0.0000 H   0  0  0  0  0  0  0  0  0  0  0  0
   16.1337    1.9750    0.0000 H   0  0  0  0  0  0  0  0  0  0  0  0
   15.3366    1.9750    0.0000 H   0  0  0  0  0  0  0  0  0  0  0  0
   18.3332    0.3800    0.0000 H   0  0  0  0  0  0  0  0  0  0  0  0
   19.7362    1.1900    0.0000 H   0  0  0  0  0  0  0  0  0  0  0  0
   18.9872    3.0826    0.0000 H   0  0  0  0  0  0  0  0  0  0  0  0
   18.5887    2.3923    0.0000 H   0  0  0  0  0  0  0  0  0  0  0  0
   20.6022    2.6900    0.0000 H   0  0  0  0  0  0  0  0  0  0  0  0
   20.6022    4.3100    0.0000 H   0  0  0  0  0  0  0  0  0  0  0  0
   18.5887    4.6077    0.0000 H   0  0  0  0  0  0  0  0  0  0  0  0
   18.9872    3.9174    0.0000 H   0  0  0  0  0  0  0  0  0  0  0  0
   19.7362    5.8100    0.0000 H   0  0  0  0  0  0  0  0  0  0  0  0
   17.0687    5.0250    0.0000 H   0  0  0  0  0  0  0  0  0  0  0  0
   17.8657    5.0250    0.0000 H   0  0  0  0  0  0  0  0  0  0  0  0
   18.3332    6.6200    0.0000 H   0  0  0  0  0  0  0  0  0  0  0  0
   13.4662    1.1900    0.0000 H   0  0  0  0  0  0  0  0  0  0  0  0
   17.0687   15.7651    0.0000 H   0  0  0  0  0  0  0  0  0  0  0  0
   17.8657   15.7651    0.0000 H   0  0  0  0  0  0  0  0  0  0  0  0
   18.5887   15.3477    0.0000 H   0  0  0  0  0  0  0  0  0  0  0  0
   18.9872   14.6574    0.0000 H   0  0  0  0  0  0  0  0  0  0  0  0
   16.6012    6.6200    0.0000 H   0  0  0  0  0  0  0  0  0  0  0  0
   18.9872   13.8226    0.0000 H   0  0  0  0  0  0  0  0  0  0  0  0
   18.5887   13.1323    0.0000 H   0  0  0  0  0  0  0  0  0  0  0  0
   17.8657   12.7149    0.0000 H   0  0  0  0  0  0  0  0  0  0  0  0
   17.0687   12.7149    0.0000 H   0  0  0  0  0  0  0  0  0  0  0  0
   18.3332   17.3600    0.0000 H   0  0  0  0  0  0  0  0  0  0  0  0
   19.7362   16.5500    0.0000 H   0  0  0  0  0  0  0  0  0  0  0  0
   16.9997   17.2149    0.0000 H   0  0  0  0  0  0  0  0  0  0  0  0
   16.2027   17.2149    0.0000 H   0  0  0  0  0  0  0  0  0  0  0  0
   20.6022   15.0500    0.0000 H   0  0  0  0  0  0  0  0  0  0  0  0
   15.9472    3.9174    0.0000 H   0  0  0  0  0  0  0  0  0  0  0  0
   16.3457    4.6077    0.0000 H   0  0  0  0  0  0  0  0  0  0  0  0
   20.6022   13.4300    0.0000 H   0  0  0  0  0  0  0  0  0  0  0  0
   15.1982    5.8100    0.0000 H   0  0  0  0  0  0  0  0  0  0  0  0
   19.7362   11.9300    0.0000 H   0  0  0  0  0  0  0  0  0  0  0  0
   18.3332   11.1200    0.0000 H   0  0  0  0  0  0  0  0  0  0  0  0
   16.3457   13.1323    0.0000 H   0  0  0  0  0  0  0  0  0  0  0  0
   15.9472   13.8226    0.0000 H   0  0  0  0  0  0  0  0  0  0  0  0
   16.6012   11.1200    0.0000 H   0  0  0  0  0  0  0  0  0  0  0  0
   15.1982   11.9300    0.0000 H   0  0  0  0  0  0  0  0  0  0  0  0
   14.8691   14.3600    0.0000 H   0  0  0  0  0  0  0  0  0  0  0  0
   14.2152   11.6574    0.0000 H   0  0  0  0  0  0  0  0  0  0  0  0
   14.6137   12.3477    0.0000 H   0  0  0  0  0  0  0  0  0  0  0  0
   14.8691    3.3800    0.0000 H   0  0  0  0  0  0  0  0  0  0  0  0
   13.4662   13.5500    0.0000 H   0  0  0  0  0  0  0  0  0  0  0  0
   13.4662    4.1900    0.0000 H   0  0  0  0  0  0  0  0  0  0  0  0
   14.6137    5.3923    0.0000 H   0  0  0  0  0  0  0  0  0  0  0  0
   14.2152    6.0826    0.0000 H   0  0  0  0  0  0  0  0  0  0  0  0
   12.6002   12.0500    0.0000 H   0  0  0  0  0  0  0  0  0  0  0  0
   14.6137   10.1323    0.0000 H   0  0  0  0  0  0  0  0  0  0  0  0
   14.2152   10.8226    0.0000 H   0  0  0  0  0  0  0  0  0  0  0  0
   12.6002   10.4300    0.0000 H   0  0  0  0  0  0  0  0  0  0  0  0
   13.4471    6.5369    0.0000 H   0  0  0  0  0  0  0  0  0  0  0  0
   12.6002    6.3100    0.0000 H   0  0  0  0  0  0  0  0  0  0  0  0
   12.8271    5.4631    0.0000 H   0  0  0  0  0  0  0  0  0  0  0  0
   13.3831    9.2400    0.0000 H   0  0  0  0  0  0  0  0  0  0  0  0
   14.0031    8.6200    0.0000 H   0  0  0  0  0  0  0  0  0  0  0  0
   14.6231    9.2400    0.0000 H   0  0  0  0  0  0  0  0  0  0  0  0
   14.3322   16.4300    0.0000 H   0  0  0  0  0  0  0  0  0  0  0  0
  1 15  1  0  0  0  0
  1 85  1  0  0  0  0
  2 15  2  0  0  0  0
  3 31  1  0  0  0  0
  3115  1  0  0  0  0
  4 31  2  0  0  0  0
  5 62  1  0  0  0  0
  5158  1  0  0  0  0
  6 62  2  0  0  0  0
  7  8  1  0  0  0  0
  7  9  1  0  0  0  0
  7 67  1  0  0  0  0
  7 68  1  0  0  0  0
  8 10  1  0  0  0  0
  8 69  1  0  0  0  0
  8 70  1  0  0  0  0
  9 11  1  0  0  0  0
  9 71  1  0  0  0  0
  9 72  1  0  0  0  0
 10 12  1  0  0  0  0
 10 73  1  0  0  0  0
 10 74  1  0  0  0  0
 11 13  1  0  0  0  0
 11 75  1  0  0  0  0
 11 76  1  0  0  0  0
 12 14  1  0  0  0  0
 12 77  1  0  0  0  0
 12 78  1  0  0  0  0
 13 15  1  0  0  0  0
 13 79  1  0  0  0  0
 13 80  1  0  0  0  0
 14 16  2  0  0  0  0
 14 81  1  0  0  0  0
 16 17  1  0  0  0  0
 16 82  1  0  0  0  0
 17 18  1  0  0  0  0
 17 83  1  0  0  0  0
 17 84  1  0  0  0  0
 18 19  2  0  0  0  0
 18 86  1  0  0  0  0
 19 20  1  0  0  0  0
 19 87  1  0  0  0  0
 20 21  1  0  0  0  0
 20 88  1  0  0  0  0
 20 89  1  0  0  0  0
 21 22  2  0  0  0  0
 21 90  1  0  0  0  0
 22 23  1  0  0  0  0
 22 91  1  0  0  0  0
 23 26  1  0  0  0  0
 23 92  1  0  0  0  0
 23 93  1  0  0  0  0
 24 25  1  0  0  0  0
 24 27  1  0  0  0  0
 24 94  1  0  0  0  0
 24 95  1  0  0  0  0
 25 28  1  0  0  0  0
 25 96  1  0  0  0  0
 25 97  1  0  0  0  0
 26 98  1  0  0  0  0
 26 99  1  0  0  0  0
 26100  1  0  0  0  0
 27 31  1  0  0  0  0
 27101  1  0  0  0  0
 27102  1  0  0  0  0
 28 29  2  0  0  0  0
 28103  1  0  0  0  0
 29 30  1  0  0  0  0
 29104  1  0  0  0  0
 30 32  1  0  0  0  0
 30105  1  0  0  0  0
 30106  1  0  0  0  0
 32 33  2  0  0  0  0
 32107  1  0  0  0  0
 33 34  1  0  0  0  0
 33108  1  0  0  0  0
 34 35  1  0  0  0  0
 34109  1  0  0  0  0
 34110  1  0  0  0  0
 35 37  2  0  0  0  0
 35111  1  0  0  0  0
 36 37  1  0  0  0  0
 36 40  1  0  0  0  0
 36112  1  0  0  0  0
 36113  1  0  0  0  0
 37114  1  0  0  0  0
 38 43  1  0  0  0  0
 38 45  1  0  0  0  0
 38116  1  0  0  0  0
 38117  1  0  0  0  0
 39 44  1  0  0  0  0
 39 46  1  0  0  0  0
 39118  1  0  0  0  0
 39119  1  0  0  0  0
 40 48  2  0  0  0  0
 40120  1  0  0  0  0
 41 49  1  0  0  0  0
 41 50  1  0  0  0  0
 41121  1  0  0  0  0
 41122  1  0  0  0  0
 42 51  1  0  0  0  0
 42 53  1  0  0  0  0
 42123  1  0  0  0  0
 42124  1  0  0  0  0
 43 44  2  0  0  0  0
 43125  1  0  0  0  0
 44126  1  0  0  0  0
 45 62  1  0  0  0  0
 45127  1  0  0  0  0
 45128  1  0  0  0  0
 46 49  2  0  0  0  0
 46129  1  0  0  0  0
 47 48  1  0  0  0  0
 47 56  1  0  0  0  0
 47130  1  0  0  0  0
 47131  1  0  0  0  0
 48133  1  0  0  0  0
 49132  1  0  0  0  0
 50 51  2  0  0  0  0
 50134  1  0  0  0  0
 51135  1  0  0  0  0
 52 54  1  0  0  0  0
 52 55  1  0  0  0  0
 52136  1  0  0  0  0
 52137  1  0  0  0  0
 53 54  2  0  0  0  0
 53138  1  0  0  0  0
 54139  1  0  0  0  0
 55 58  2  0  0  0  0
 55140  1  0  0  0  0
 56 59  2  0  0  0  0
 56143  1  0  0  0  0
 57 58  1  0  0  0  0
 57 61  1  0  0  0  0
 57141  1  0  0  0  0
 57142  1  0  0  0  0
 58144  1  0  0  0  0
 59 60  1  0  0  0  0
 59145  1  0  0  0  0
 60 65  1  0  0  0  0
 60146  1  0  0  0  0
 60147  1  0  0  0  0
 61 64  2  0  0  0  0
 61148  1  0  0  0  0
 63 64  1  0  0  0  0
 63 66  1  0  0  0  0
 63149  1  0  0  0  0
 63150  1  0  0  0  0
 64151  1  0  0  0  0
 65152  1  0  0  0  0
 65153  1  0  0  0  0
 65154  1  0  0  0  0
 66155  1  0  0  0  0
 66156  1  0  0  0  0
 66157  1  0  0  0  0
M  END
> <PUBCHEM_COMPOUND_CID>
56842239

> <PUBCHEM_COMPOUND_CANONICALIZED>
1

> <PUBCHEM_CACTVS_COMPLEXITY>
1160

> <PUBCHEM_CACTVS_HBOND_ACCEPTOR>
6

> <PUBCHEM_CACTVS_HBOND_DONOR>
3

> <PUBCHEM_CACTVS_ROTATABLE_BOND>
40

> <PUBCHEM_CACTVS_SUBSKEYS>
AAADcfB8OAAAAAAAAAAAAAAAAAAAAAAAAAAAAAAAAAAAAAAAAAAAGgAACAAACACAgAACCAAAAgCIACDSCAAAAAAgAAAICAEAAAgAABIAAQAAQAAEgAAIAAOIyKCAAAAAAAAAAAAAAAAAAAAAAAAAAAAAAA==

> <PUBCHEM_IUPAC_OPENEYE_NAME>
(4Z,7Z,10Z,13Z,16Z,19Z)-docosa-4,7,10,13,16,19-hexaenoic acid;(5Z,8Z,11Z,14Z,17Z)-icosa-5,8,11,14,17-pentaenoic acid;(9Z,12Z,15Z)-octadeca-9,12,15-trienoic acid

> <PUBCHEM_IUPAC_CAS_NAME>
(4Z,7Z,10Z,13Z,16Z,19Z)-docosa-4,7,10,13,16,19-hexaenoic acid;(5Z,8Z,11Z,14Z,17Z)-eicosa-5,8,11,14,17-pentaenoic acid;(9Z,12Z,15Z)-octadeca-9,12,15-trienoic acid

> <PUBCHEM_IUPAC_NAME_MARKUP>
(4<I>Z</I>,7<I>Z</I>,10<I>Z</I>,13<I>Z</I>,16<I>Z</I>,19<I>Z</I>)-docosa-4,7,10,13,16,19-hexaenoic acid;(5<I>Z</I>,8<I>Z</I>,11<I>Z</I>,14<I>Z</I>,17<I>Z</I>)-icosa-5,8,11,14,17-pentaenoic acid;(9<I>Z</I>,12<I>Z</I>,15<I>Z</I>)-octadeca-9,12,15-trienoic acid

> <PUBCHEM_IUPAC_NAME>
(4Z,7Z,10Z,13Z,16Z,19Z)-docosa-4,7,10,13,16,19-hexaenoic acid;(5Z,8Z,11Z,14Z,17Z)-icosa-5,8,11,14,17-pentaenoic acid;(9Z,12Z,15Z)-octadeca-9,12,15-trienoic acid

> <PUBCHEM_IUPAC_SYSTEMATIC_NAME>
(4Z,7Z,10Z,13Z,16Z,19Z)-docosa-4,7,10,13,16,19-hexaenoic acid;(5Z,8Z,11Z,14Z,17Z)-icosa-5,8,11,14,17-pentaenoic acid;(9Z,12Z,15Z)-octadeca-9,12,15-trienoic acid

> <PUBCHEM_IUPAC_TRADITIONAL_NAME>
(4Z,7Z,10Z,13Z,16Z,19Z)-docosa-4,7,10,13,16,19-hexaenoic acid;(5Z,8Z,11Z,14Z,17Z)-eicosa-5,8,11,14,17-pentaenoic acid;(9Z,12Z,15Z)-octadeca-9,12,15-trienoic acid

> <PUBCHEM_IUPAC_INCHI>
InChI=1S/C22H32O2.C20H30O2.C18H30O2/c1-2-3-4-5-6-7-8-9-10-11-12-13-14-15-16-17-18-19-20-21-22(23)24;1-2-3-4-5-6-7-8-9-10-11-12-13-14-15-16-17-18-19-20(21)22;1-2-3-4-5-6-7-8-9-10-11-12-13-14-15-16-17-18(19)20/h3-4,6-7,9-10,12-13,15-16,18-19H,2,5,8,11,14,17,20-21H2,1H3,(H,23,24);3-4,6-7,9-10,12-13,15-16H,2,5,8,11,14,17-19H2,1H3,(H,21,22);3-4,6-7,9-10H,2,5,8,11-17H2,1H3,(H,19,20)/b4-3-,7-6-,10-9-,13-12-,16-15-,19-18-;4-3-,7-6-,10-9-,13-12-,16-15-;4-3-,7-6-,10-9-

> <PUBCHEM_IUPAC_INCHIKEY>
QPEOIOLHJXXJFN-GNGJDXFDSA-N

> <PUBCHEM_EXACT_MASS>
908.68939065

> <PUBCHEM_MOLECULAR_FORMULA>
C60H92O6

> <PUBCHEM_MOLECULAR_WEIGHT>
909.4

> <PUBCHEM_SMILES>
CC/C=C\C/C=C\C/C=C\CCCCCCCC(=O)O.CC/C=C\C/C=C\C/C=C\C/C=C\C/C=C\CCCC(=O)O.CC/C=C\C/C=C\C/C=C\C/C=C\C/C=C\C/C=C\CCC(=O)O

> <PUBCHEM_CONNECTIVITY_SMILES>
CCC=CCC=CCC=CCCCCCCCC(=O)O.CCC=CCC=CCC=CCC=CCC=CCCCC(=O)O.CCC=CCC=CCC=CCC=CCC=CCC=CCCC(=O)O

> <PUBCHEM_CACTVS_TPSA>
112

> <PUBCHEM_MONOISOTOPIC_WEIGHT>
908.68939065

> <PUBCHEM_TOTAL_CHARGE>
0

> <PUBCHEM_HEAVY_ATOM_COUNT>
66

> <PUBCHEM_ATOM_DEF_STEREO_COUNT>
0

> <PUBCHEM_ATOM_UDEF_STEREO_COUNT>
0

> <PUBCHEM_BOND_DEF_STEREO_COUNT>
14

> <PUBCHEM_BOND_UDEF_STEREO_COUNT>
0

> <PUBCHEM_ISOTOPIC_ATOM_COUNT>
0

> <PUBCHEM_COMPONENT_COUNT>
3

> <PUBCHEM_CACTVS_TAUTO_COUNT>
-1

> <PUBCHEM_COORDINATE_TYPE>
1
5
255

$$$$
