9796015
  -OEChem-01202622352D

 43 43  0     0  0  0  0  0  0999 V2000
    5.4641    2.4050    0.0000 O   0  0  0  0  0  0  0  0  0  0  0  0
    4.5981    0.9050    0.0000 O   0  0  0  0  0  0  0  0  0  0  0  0
    2.8660   -4.0950    0.0000 O   0  0  0  0  0  0  0  0  0  0  0  0
    4.5981   -5.0950    0.0000 O   0  0  0  0  0  0  0  0  0  0  0  0
    7.1962    3.4050    0.0000 C   0  0  0  0  0  0  0  0  0  0  0  0
    8.0622    3.9050    0.0000 C   0  0  0  0  0  0  0  0  0  0  0  0
    7.1962    2.4050    0.0000 C   0  0  0  0  0  0  0  0  0  0  0  0
    8.0622    4.9050    0.0000 C   0  0  0  0  0  0  0  0  0  0  0  0
    6.3301    1.9050    0.0000 C   0  0  0  0  0  0  0  0  0  0  0  0
    6.3301    0.9050    0.0000 C   0  0  0  0  0  0  0  0  0  0  0  0
    8.9282    5.4050    0.0000 C   0  0  0  0  0  0  0  0  0  0  0  0
    5.4641    0.4050    0.0000 C   0  0  0  0  0  0  0  0  0  0  0  0
    5.4641   -0.5950    0.0000 C   0  0  0  0  0  0  0  0  0  0  0  0
    4.5981   -2.0950    0.0000 C   0  0  0  0  0  0  0  0  0  0  0  0
    4.5981   -1.0950    0.0000 C   0  0  0  0  0  0  0  0  0  0  0  0
    3.7321   -2.5950    0.0000 C   0  0  0  0  0  0  0  0  0  0  0  0
    5.4641   -2.5950    0.0000 C   0  0  0  0  0  0  0  0  0  0  0  0
    3.7321   -3.5950    0.0000 C   0  0  0  0  0  0  0  0  0  0  0  0
    4.5981   -4.0950    0.0000 C   0  0  0  0  0  0  0  0  0  0  0  0
    5.4641   -3.5950    0.0000 C   0  0  0  0  0  0  0  0  0  0  0  0
    2.0000   -3.5950    0.0000 C   0  0  0  0  0  0  0  0  0  0  0  0
    6.9841    3.9876    0.0000 H   0  0  0  0  0  0  0  0  0  0  0  0
    6.5856    3.2973    0.0000 H   0  0  0  0  0  0  0  0  0  0  0  0
    8.2742    3.3224    0.0000 H   0  0  0  0  0  0  0  0  0  0  0  0
    8.6728    4.0127    0.0000 H   0  0  0  0  0  0  0  0  0  0  0  0
    7.4082    1.8224    0.0000 H   0  0  0  0  0  0  0  0  0  0  0  0
    7.8067    2.5127    0.0000 H   0  0  0  0  0  0  0  0  0  0  0  0
    7.8501    5.4876    0.0000 H   0  0  0  0  0  0  0  0  0  0  0  0
    7.4516    4.7973    0.0000 H   0  0  0  0  0  0  0  0  0  0  0  0
    6.5422    0.3224    0.0000 H   0  0  0  0  0  0  0  0  0  0  0  0
    6.9407    1.0127    0.0000 H   0  0  0  0  0  0  0  0  0  0  0  0
    9.2382    4.8681    0.0000 H   0  0  0  0  0  0  0  0  0  0  0  0
    9.4651    5.7150    0.0000 H   0  0  0  0  0  0  0  0  0  0  0  0
    8.6182    5.9419    0.0000 H   0  0  0  0  0  0  0  0  0  0  0  0
    6.0010   -0.9050    0.0000 H   0  0  0  0  0  0  0  0  0  0  0  0
    4.0611   -0.7850    0.0000 H   0  0  0  0  0  0  0  0  0  0  0  0
    3.1951   -2.2850    0.0000 H   0  0  0  0  0  0  0  0  0  0  0  0
    6.0010   -2.2850    0.0000 H   0  0  0  0  0  0  0  0  0  0  0  0
    6.0010   -3.9050    0.0000 H   0  0  0  0  0  0  0  0  0  0  0  0
    5.1350   -5.4050    0.0000 H   0  0  0  0  0  0  0  0  0  0  0  0
    2.3100   -3.0581    0.0000 H   0  0  0  0  0  0  0  0  0  0  0  0
    1.4631   -3.2850    0.0000 H   0  0  0  0  0  0  0  0  0  0  0  0
    1.6900   -4.1319    0.0000 H   0  0  0  0  0  0  0  0  0  0  0  0
  1  9  2  0  0  0  0
  2 12  2  0  0  0  0
  3 18  1  0  0  0  0
  3 21  1  0  0  0  0
  4 19  1  0  0  0  0
  4 40  1  0  0  0  0
  5  6  1  0  0  0  0
  5  7  1  0  0  0  0
  5 22  1  0  0  0  0
  5 23  1  0  0  0  0
  6  8  1  0  0  0  0
  6 24  1  0  0  0  0
  6 25  1  0  0  0  0
  7  9  1  0  0  0  0
  7 26  1  0  0  0  0
  7 27  1  0  0  0  0
  8 11  1  0  0  0  0
  8 28  1  0  0  0  0
  8 29  1  0  0  0  0
  9 10  1  0  0  0  0
 10 12  1  0  0  0  0
 10 30  1  0  0  0  0
 10 31  1  0  0  0  0
 11 32  1  0  0  0  0
 11 33  1  0  0  0  0
 11 34  1  0  0  0  0
 12 13  1  0  0  0  0
 13 15  2  0  0  0  0
 13 35  1  0  0  0  0
 14 15  1  0  0  0  0
 14 16  2  0  0  0  0
 14 17  1  0  0  0  0
 15 36  1  0  0  0  0
 16 18  1  0  0  0  0
 16 37  1  0  0  0  0
 17 20  2  0  0  0  0
 17 38  1  0  0  0  0
 18 19  2  0  0  0  0
 19 20  1  0  0  0  0
 20 39  1  0  0  0  0
 21 41  1  0  0  0  0
 21 42  1  0  0  0  0
 21 43  1  0  0  0  0
M  END
> <PUBCHEM_COMPOUND_CID>
9796015

> <PUBCHEM_COMPOUND_CANONICALIZED>
1

> <PUBCHEM_CACTVS_COMPLEXITY>
362

> <PUBCHEM_CACTVS_HBOND_ACCEPTOR>
4

> <PUBCHEM_CACTVS_HBOND_DONOR>
1

> <PUBCHEM_CACTVS_ROTATABLE_BOND>
9

> <PUBCHEM_CACTVS_SUBSKEYS>
AAADceB4OAAAAAAAAAAAAAAAAAAAAAAAAAAwAAAAAAAAAAABAAAAGgAACAAADASAmAIyBoAABgCIAqBSAAACCAAgIAAIiAEGiMgNJjKOMRqAcCMkwBELuYeIyJCOIAABAAAAQABAAAIAAACAAAAAAAAAAA==

> <PUBCHEM_IUPAC_OPENEYE_NAME>
(E)-1-(4-hydroxy-3-methoxy-phenyl)dec-1-ene-3,5-dione

> <PUBCHEM_IUPAC_CAS_NAME>
(E)-1-(4-hydroxy-3-methoxyphenyl)-1-decene-3,5-dione

> <PUBCHEM_IUPAC_NAME_MARKUP>
(<I>E</I>)-1-(4-hydroxy-3-methoxyphenyl)dec-1-ene-3,5-dione

> <PUBCHEM_IUPAC_NAME>
(E)-1-(4-hydroxy-3-methoxyphenyl)dec-1-ene-3,5-dione

> <PUBCHEM_IUPAC_SYSTEMATIC_NAME>
(E)-1-(3-methoxy-4-oxidanyl-phenyl)dec-1-ene-3,5-dione

> <PUBCHEM_IUPAC_TRADITIONAL_NAME>
(E)-1-(4-hydroxy-3-methoxy-phenyl)dec-1-ene-3,5-dione

> <PUBCHEM_IUPAC_INCHI>
InChI=1S/C17H22O4/c1-3-4-5-6-14(18)12-15(19)9-7-13-8-10-16(20)17(11-13)21-2/h7-11,20H,3-6,12H2,1-2H3/b9-7+

> <PUBCHEM_IUPAC_INCHIKEY>
JUKHKHMSQCQHEN-VQHVLOKHSA-N

> <PUBCHEM_XLOGP3>
3.5

> <PUBCHEM_EXACT_MASS>
290.15180918

> <PUBCHEM_MOLECULAR_FORMULA>
C17H22O4

> <PUBCHEM_MOLECULAR_WEIGHT>
290.4

> <PUBCHEM_SMILES>
CCCCCC(=O)CC(=O)/C=C/C1=CC(=C(C=C1)O)OC

> <PUBCHEM_CONNECTIVITY_SMILES>
CCCCCC(=O)CC(=O)C=CC1=CC(=C(C=C1)O)OC

> <PUBCHEM_CACTVS_TPSA>
63.6

> <PUBCHEM_MONOISOTOPIC_WEIGHT>
290.15180918

> <PUBCHEM_TOTAL_CHARGE>
0

> <PUBCHEM_HEAVY_ATOM_COUNT>
21

> <PUBCHEM_ATOM_DEF_STEREO_COUNT>
0

> <PUBCHEM_ATOM_UDEF_STEREO_COUNT>
0

> <PUBCHEM_BOND_DEF_STEREO_COUNT>
1

> <PUBCHEM_BOND_UDEF_STEREO_COUNT>
0

> <PUBCHEM_ISOTOPIC_ATOM_COUNT>
0

> <PUBCHEM_COMPONENT_COUNT>
1

> <PUBCHEM_CACTVS_TAUTO_COUNT>
-1

> <PUBCHEM_COORDINATE_TYPE>
1
5
255

> <PUBCHEM_BONDANNOTATIONS>
14  16  8
14  17  8
16  18  8
17  20  8
18  19  8
19  20  8

$$$$
