11263579
  -OEChem-01202622372D

 26 26  0     0  0  0  0  0  0999 V2000
    2.0000    1.8660    0.0000 N   0  0  0  0  0  0  0  0  0  0  0  0
    3.0000    0.1340    0.0000 C   0  0  0  0  0  0  0  0  0  0  0  0
    2.1340   -0.3660    0.0000 C   0  0  0  0  0  0  0  0  0  0  0  0
    3.8660   -0.3660    0.0000 C   0  0  0  0  0  0  0  0  0  0  0  0
    2.1340   -1.3660    0.0000 C   0  0  0  0  0  0  0  0  0  0  0  0
    3.8660   -1.3660    0.0000 C   0  0  0  0  0  0  0  0  0  0  0  0
    3.0000   -1.8660    0.0000 C   0  0  0  0  0  0  0  0  0  0  0  0
    3.5000    1.0000    0.0000 C   0  0  0  0  0  0  0  0  0  0  0  0
    2.5000    1.0000    0.0000 C   0  0  0  0  0  0  0  0  0  0  0  0
    4.5000    1.0000    0.0000 C   0  0  0  0  0  0  0  0  0  0  0  0
    5.0000    1.8660    0.0000 C   0  0  0  0  0  0  0  0  0  0  0  0
    1.9219    0.2166    0.0000 H   0  0  0  0  0  0  0  0  0  0  0  0
    1.5234   -0.4737    0.0000 H   0  0  0  0  0  0  0  0  0  0  0  0
    4.4766   -0.4737    0.0000 H   0  0  0  0  0  0  0  0  0  0  0  0
    4.0781    0.2166    0.0000 H   0  0  0  0  0  0  0  0  0  0  0  0
    1.5234   -1.2584    0.0000 H   0  0  0  0  0  0  0  0  0  0  0  0
    1.9219   -1.9486    0.0000 H   0  0  0  0  0  0  0  0  0  0  0  0
    4.0781   -1.9486    0.0000 H   0  0  0  0  0  0  0  0  0  0  0  0
    4.4766   -1.2584    0.0000 H   0  0  0  0  0  0  0  0  0  0  0  0
    2.6015   -2.3410    0.0000 H   0  0  0  0  0  0  0  0  0  0  0  0
    3.3985   -2.3410    0.0000 H   0  0  0  0  0  0  0  0  0  0  0  0
    3.6077    1.6106    0.0000 H   0  0  0  0  0  0  0  0  0  0  0  0
    2.9174    1.2121    0.0000 H   0  0  0  0  0  0  0  0  0  0  0  0
    4.8100    0.4631    0.0000 H   0  0  0  0  0  0  0  0  0  0  0  0
    5.6200    1.8660    0.0000 H   0  0  0  0  0  0  0  0  0  0  0  0
    4.6900    2.4030    0.0000 H   0  0  0  0  0  0  0  0  0  0  0  0
  1  9  3  0  0  0  0
  2  3  1  0  0  0  0
  2  4  1  0  0  0  0
  2  8  1  0  0  0  0
  2  9  1  0  0  0  0
  3  5  1  0  0  0  0
  3 12  1  0  0  0  0
  3 13  1  0  0  0  0
  4  6  1  0  0  0  0
  4 14  1  0  0  0  0
  4 15  1  0  0  0  0
  5  7  1  0  0  0  0
  5 16  1  0  0  0  0
  5 17  1  0  0  0  0
  6  7  1  0  0  0  0
  6 18  1  0  0  0  0
  6 19  1  0  0  0  0
  7 20  1  0  0  0  0
  7 21  1  0  0  0  0
  8 10  1  0  0  0  0
  8 22  1  0  0  0  0
  8 23  1  0  0  0  0
 10 11  2  0  0  0  0
 10 24  1  0  0  0  0
 11 25  1  0  0  0  0
 11 26  1  0  0  0  0
M  END
> <PUBCHEM_COMPOUND_CID>
11263579

> <PUBCHEM_COMPOUND_CANONICALIZED>
1

> <PUBCHEM_CACTVS_COMPLEXITY>
178

> <PUBCHEM_CACTVS_HBOND_ACCEPTOR>
1

> <PUBCHEM_CACTVS_HBOND_DONOR>
0

> <PUBCHEM_CACTVS_ROTATABLE_BOND>
2

> <PUBCHEM_CACTVS_SUBSKEYS>
AAADccByAAAAAAAAAAAAAAAAAAAAAAAAAAAwAAAAAAAAAAAAAAAAHAAAAAAADgCBAAAAAAAAAACQBCBCAAAAAAAgAAAIAAAAAAgAgAIAAQAAAAAAgAAAAAkAgMAPAAAAAAAAAAAAAAAAAAAAAAAAAAAAAA==

> <PUBCHEM_IUPAC_OPENEYE_NAME>
1-allylcyclohexanecarbonitrile

> <PUBCHEM_IUPAC_CAS_NAME>
1-prop-2-enyl-1-cyclohexanecarbonitrile

> <PUBCHEM_IUPAC_NAME_MARKUP>
1-prop-2-enylcyclohexane-1-carbonitrile

> <PUBCHEM_IUPAC_NAME>
1-prop-2-enylcyclohexane-1-carbonitrile

> <PUBCHEM_IUPAC_SYSTEMATIC_NAME>
1-prop-2-enylcyclohexane-1-carbonitrile

> <PUBCHEM_IUPAC_TRADITIONAL_NAME>
1-allylcyclohexanecarbonitrile

> <PUBCHEM_IUPAC_INCHI>
InChI=1S/C10H15N/c1-2-6-10(9-11)7-4-3-5-8-10/h2H,1,3-8H2

> <PUBCHEM_IUPAC_INCHIKEY>
QCDHXXULSUSOSR-UHFFFAOYSA-N

> <PUBCHEM_XLOGP3_AA>
3

> <PUBCHEM_EXACT_MASS>
149.120449483

> <PUBCHEM_MOLECULAR_FORMULA>
C10H15N

> <PUBCHEM_MOLECULAR_WEIGHT>
149.23

> <PUBCHEM_SMILES>
C=CCC1(CCCCC1)C#N

> <PUBCHEM_CONNECTIVITY_SMILES>
C=CCC1(CCCCC1)C#N

> <PUBCHEM_CACTVS_TPSA>
23.8

> <PUBCHEM_MONOISOTOPIC_WEIGHT>
149.120449483

> <PUBCHEM_TOTAL_CHARGE>
0

> <PUBCHEM_HEAVY_ATOM_COUNT>
11

> <PUBCHEM_ATOM_DEF_STEREO_COUNT>
0

> <PUBCHEM_ATOM_UDEF_STEREO_COUNT>
0

> <PUBCHEM_BOND_DEF_STEREO_COUNT>
0

> <PUBCHEM_BOND_UDEF_STEREO_COUNT>
0

> <PUBCHEM_ISOTOPIC_ATOM_COUNT>
0

> <PUBCHEM_COMPONENT_COUNT>
1

> <PUBCHEM_CACTVS_TAUTO_COUNT>
-1

> <PUBCHEM_COORDINATE_TYPE>
1
5
255

$$$$
