465116
  -OEChem-01202622252D

 36 38  0     0  0  0  0  0  0999 V2000
    7.6255    1.2889    0.0000 O   0  0  0  0  0  0  0  0  0  0  0  0
    5.9721    1.8051    0.0000 O   0  0  0  0  0  0  0  0  0  0  0  0
    8.3780   -2.1858    0.0000 O   0  0  0  0  0  0  0  0  0  0  0  0
    4.5274    0.4707    0.0000 N   0  0  0  0  0  0  0  0  0  0  0  0
    5.0274   -1.0682    0.0000 C   0  0  0  0  0  0  0  0  0  0  0  0
    5.3364   -0.1171    0.0000 C   0  0  0  0  0  0  0  0  0  0  0  0
    4.0274   -1.0682    0.0000 C   0  0  0  0  0  0  0  0  0  0  0  0
    3.7183   -0.1171    0.0000 C   0  0  0  0  0  0  0  0  0  0  0  0
    6.3518    0.1151    0.0000 C   0  0  0  0  0  0  0  0  0  0  0  0
    5.7123   -1.8529    0.0000 C   0  0  0  0  0  0  0  0  0  0  0  0
    7.0547   -0.6536    0.0000 C   0  0  0  0  0  0  0  0  0  0  0  0
    6.7328   -1.6442    0.0000 C   0  0  0  0  0  0  0  0  0  0  0  0
    3.3424   -1.8529    0.0000 C   0  0  0  0  0  0  0  0  0  0  0  0
    2.7029    0.1151    0.0000 C   0  0  0  0  0  0  0  0  0  0  0  0
    6.6498    1.0697    0.0000 C   0  0  0  0  0  0  0  0  0  0  0  0
    2.3219   -1.6442    0.0000 C   0  0  0  0  0  0  0  0  0  0  0  0
    7.9235    2.2435    0.0000 C   0  0  0  0  0  0  0  0  0  0  0  0
    2.0000   -0.6536    0.0000 C   0  0  0  0  0  0  0  0  0  0  0  0
    7.3991   -2.3899    0.0000 C   0  0  0  0  0  0  0  0  0  0  0  0
    8.8991    2.4627    0.0000 C   0  0  0  0  0  0  0  0  0  0  0  0
    7.2458    2.9788    0.0000 C   0  0  0  0  0  0  0  0  0  0  0  0
    4.5274    1.0907    0.0000 H   0  0  0  0  0  0  0  0  0  0  0  0
    5.5139   -2.4403    0.0000 H   0  0  0  0  0  0  0  0  0  0  0  0
    7.6607   -0.5223    0.0000 H   0  0  0  0  0  0  0  0  0  0  0  0
    3.5408   -2.4403    0.0000 H   0  0  0  0  0  0  0  0  0  0  0  0
    2.5182    0.7070    0.0000 H   0  0  0  0  0  0  0  0  0  0  0  0
    7.3185    2.1076    0.0000 H   0  0  0  0  0  0  0  0  0  0  0  0
    1.9088   -2.1066    0.0000 H   0  0  0  0  0  0  0  0  0  0  0  0
    1.3940   -0.5223    0.0000 H   0  0  0  0  0  0  0  0  0  0  0  0
    9.0350    1.8578    0.0000 H   0  0  0  0  0  0  0  0  0  0  0  0
    9.5041    2.5986    0.0000 H   0  0  0  0  0  0  0  0  0  0  0  0
    8.7632    3.0676    0.0000 H   0  0  0  0  0  0  0  0  0  0  0  0
    7.7017    3.3990    0.0000 H   0  0  0  0  0  0  0  0  0  0  0  0
    6.8256    3.4348    0.0000 H   0  0  0  0  0  0  0  0  0  0  0  0
    6.7899    2.5587    0.0000 H   0  0  0  0  0  0  0  0  0  0  0  0
    7.2052   -2.9788    0.0000 H   0  0  0  0  0  0  0  0  0  0  0  0
  1 15  1  0  0  0  0
  1 17  1  0  0  0  0
  2 15  2  0  0  0  0
  3 19  2  0  0  0  0
  4  6  1  0  0  0  0
  4  8  1  0  0  0  0
  4 22  1  0  0  0  0
  5  6  2  0  0  0  0
  5  7  1  0  0  0  0
  5 10  1  0  0  0  0
  6  9  1  0  0  0  0
  7  8  1  0  0  0  0
  7 13  2  0  0  0  0
  8 14  2  0  0  0  0
  9 11  2  0  0  0  0
  9 15  1  0  0  0  0
 10 12  2  0  0  0  0
 10 23  1  0  0  0  0
 11 12  1  0  0  0  0
 11 24  1  0  0  0  0
 12 19  1  0  0  0  0
 13 16  1  0  0  0  0
 13 25  1  0  0  0  0
 14 18  1  0  0  0  0
 14 26  1  0  0  0  0
 16 18  2  0  0  0  0
 16 28  1  0  0  0  0
 17 20  1  0  0  0  0
 17 21  1  0  0  0  0
 17 27  1  0  0  0  0
 18 29  1  0  0  0  0
 19 36  1  0  0  0  0
 20 30  1  0  0  0  0
 20 31  1  0  0  0  0
 20 32  1  0  0  0  0
 21 33  1  0  0  0  0
 21 34  1  0  0  0  0
 21 35  1  0  0  0  0
M  END
> <PUBCHEM_COMPOUND_CID>
465116

> <PUBCHEM_COMPOUND_CANONICALIZED>
1

> <PUBCHEM_CACTVS_COMPLEXITY>
409

> <PUBCHEM_CACTVS_HBOND_ACCEPTOR>
3

> <PUBCHEM_CACTVS_HBOND_DONOR>
1

> <PUBCHEM_CACTVS_ROTATABLE_BOND>
4

> <PUBCHEM_CACTVS_SUBSKEYS>
AAADccB6MAAAAAAAAAAAAAAAAAAAAWAAAAAwYAAAAAAAAFgB/AAAHgAQAAAADByhngIyyPLJlACoAyzyzACCgCAlAiAImSEwbNgIJvrAtZmGMYhm0AHI6ceYz/CeiAACAAACAAAQAAQAAAQAAAAAAAAAAA==

> <PUBCHEM_IUPAC_OPENEYE_NAME>
isopropyl 3-formyl-9H-carbazole-1-carboxylate

> <PUBCHEM_IUPAC_CAS_NAME>
3-formyl-9H-carbazole-1-carboxylic acid propan-2-yl ester

> <PUBCHEM_IUPAC_NAME_MARKUP>
propan-2-yl 3-formyl-9<I>H</I>-carbazole-1-carboxylate

> <PUBCHEM_IUPAC_NAME>
propan-2-yl 3-formyl-9H-carbazole-1-carboxylate

> <PUBCHEM_IUPAC_SYSTEMATIC_NAME>
propan-2-yl 3-methanoyl-9H-carbazole-1-carboxylate

> <PUBCHEM_IUPAC_TRADITIONAL_NAME>
3-formyl-9H-carbazole-1-carboxylic acid isopropyl ester

> <PUBCHEM_IUPAC_INCHI>
InChI=1S/C17H15NO3/c1-10(2)21-17(20)14-8-11(9-19)7-13-12-5-3-4-6-15(12)18-16(13)14/h3-10,18H,1-2H3

> <PUBCHEM_IUPAC_INCHIKEY>
OPOXRRQZPVWLOW-UHFFFAOYSA-N

> <PUBCHEM_XLOGP3_AA>
3.5

> <PUBCHEM_EXACT_MASS>
281.10519334

> <PUBCHEM_MOLECULAR_FORMULA>
C17H15NO3

> <PUBCHEM_MOLECULAR_WEIGHT>
281.30

> <PUBCHEM_SMILES>
CC(C)OC(=O)C1=CC(=CC2=C1NC3=CC=CC=C32)C=O

> <PUBCHEM_CONNECTIVITY_SMILES>
CC(C)OC(=O)C1=CC(=CC2=C1NC3=CC=CC=C32)C=O

> <PUBCHEM_CACTVS_TPSA>
59.2

> <PUBCHEM_MONOISOTOPIC_WEIGHT>
281.10519334

> <PUBCHEM_TOTAL_CHARGE>
0

> <PUBCHEM_HEAVY_ATOM_COUNT>
21

> <PUBCHEM_ATOM_DEF_STEREO_COUNT>
0

> <PUBCHEM_ATOM_UDEF_STEREO_COUNT>
0

> <PUBCHEM_BOND_DEF_STEREO_COUNT>
0

> <PUBCHEM_BOND_UDEF_STEREO_COUNT>
0

> <PUBCHEM_ISOTOPIC_ATOM_COUNT>
0

> <PUBCHEM_COMPONENT_COUNT>
1

> <PUBCHEM_CACTVS_TAUTO_COUNT>
-1

> <PUBCHEM_COORDINATE_TYPE>
1
5
255

> <PUBCHEM_BONDANNOTATIONS>
10  12  8
11  12  8
13  16  8
14  18  8
16  18  8
4  6  8
4  8  8
5  10  8
5  6  8
5  7  8
6  9  8
7  13  8
7  8  8
8  14  8
9  11  8

$$$$
