5277586
  -OEChem-01202622282D

 53 55  0     0  0  0  0  0  0999 V2000
    7.2241   -1.0519    0.0000 O   0  0  0  0  0  0  0  0  0  0  0  0
    5.4641    1.9828    0.0000 O   0  0  0  0  0  0  0  0  0  0  0  0
    3.7321   -1.0172    0.0000 O   0  0  0  0  0  0  0  0  0  0  0  0
    3.7321    1.9828    0.0000 O   0  0  0  0  0  0  0  0  0  0  0  0
    8.9942   -1.0414    0.0000 O   0  0  0  0  0  0  0  0  0  0  0  0
    6.3301    0.4828    0.0000 C   0  0  0  0  0  0  0  0  0  0  0  0
    5.4641   -1.0172    0.0000 C   0  0  0  0  0  0  0  0  0  0  0  0
    4.5981    0.4828    0.0000 C   0  0  0  0  0  0  0  0  0  0  0  0
    6.3301   -0.5172    0.0000 C   0  0  0  0  0  0  0  0  0  0  0  0
    5.4641    0.9828    0.0000 C   0  0  0  0  0  0  0  0  0  0  0  0
    4.5981   -0.5172    0.0000 C   0  0  0  0  0  0  0  0  0  0  0  0
    7.2241    1.0174    0.0000 C   0  0  0  0  0  0  0  0  0  0  0  0
    2.8660    0.4828    0.0000 C   0  0  0  0  0  0  0  0  0  0  0  0
    5.4641   -2.0172    0.0000 C   0  0  0  0  0  0  0  0  0  0  0  0
    3.7321    0.9828    0.0000 C   0  0  0  0  0  0  0  0  0  0  0  0
    7.2125    2.0174    0.0000 C   0  0  0  0  0  0  0  0  0  0  0  0
    8.1301    0.5036    0.0000 C   0  0  0  0  0  0  0  0  0  0  0  0
    2.0000    0.9828    0.0000 C   0  0  0  0  0  0  0  0  0  0  0  0
    2.8660   -0.5172    0.0000 C   0  0  0  0  0  0  0  0  0  0  0  0
    4.5981   -2.5172    0.0000 C   0  0  0  0  0  0  0  0  0  0  0  0
    8.1301   -0.5380    0.0000 C   0  0  0  0  0  0  0  0  0  0  0  0
    4.5981   -3.5172    0.0000 C   0  0  0  0  0  0  0  0  0  0  0  0
    8.0727    2.5273    0.0000 C   0  0  0  0  0  0  0  0  0  0  0  0
    6.3408    2.5073    0.0000 C   0  0  0  0  0  0  0  0  0  0  0  0
    8.0611    3.5273    0.0000 C   0  0  0  0  0  0  0  0  0  0  0  0
    6.3292    3.5073    0.0000 C   0  0  0  0  0  0  0  0  0  0  0  0
    3.7321   -4.0172    0.0000 C   0  0  0  0  0  0  0  0  0  0  0  0
    5.4641   -4.0172    0.0000 C   0  0  0  0  0  0  0  0  0  0  0  0
    7.1894    4.0172    0.0000 C   0  0  0  0  0  0  0  0  0  0  0  0
    2.8660    1.1028    0.0000 H   0  0  0  0  0  0  0  0  0  0  0  0
    5.6762   -2.5998    0.0000 H   0  0  0  0  0  0  0  0  0  0  0  0
    6.0747   -1.9096    0.0000 H   0  0  0  0  0  0  0  0  0  0  0  0
    8.6659    0.8157    0.0000 H   0  0  0  0  0  0  0  0  0  0  0  0
    2.3100    1.5197    0.0000 H   0  0  0  0  0  0  0  0  0  0  0  0
    1.4631    1.2928    0.0000 H   0  0  0  0  0  0  0  0  0  0  0  0
    1.6900    0.4458    0.0000 H   0  0  0  0  0  0  0  0  0  0  0  0
    2.2460   -0.5172    0.0000 H   0  0  0  0  0  0  0  0  0  0  0  0
    2.8660   -1.1372    0.0000 H   0  0  0  0  0  0  0  0  0  0  0  0
    3.4860   -0.5172    0.0000 H   0  0  0  0  0  0  0  0  0  0  0  0
    4.0611   -2.2072    0.0000 H   0  0  0  0  0  0  0  0  0  0  0  0
    4.9272    2.2928    0.0000 H   0  0  0  0  0  0  0  0  0  0  0  0
    3.7321   -1.6372    0.0000 H   0  0  0  0  0  0  0  0  0  0  0  0
    8.6132    2.2236    0.0000 H   0  0  0  0  0  0  0  0  0  0  0  0
    5.8074    2.1911    0.0000 H   0  0  0  0  0  0  0  0  0  0  0  0
    8.5944    3.8435    0.0000 H   0  0  0  0  0  0  0  0  0  0  0  0
    5.7887    3.8110    0.0000 H   0  0  0  0  0  0  0  0  0  0  0  0
    3.4221   -3.4803    0.0000 H   0  0  0  0  0  0  0  0  0  0  0  0
    3.1951   -4.3272    0.0000 H   0  0  0  0  0  0  0  0  0  0  0  0
    4.0421   -4.5542    0.0000 H   0  0  0  0  0  0  0  0  0  0  0  0
    5.1541   -4.5542    0.0000 H   0  0  0  0  0  0  0  0  0  0  0  0
    6.0010   -4.3272    0.0000 H   0  0  0  0  0  0  0  0  0  0  0  0
    5.7741   -3.4803    0.0000 H   0  0  0  0  0  0  0  0  0  0  0  0
    7.1822    4.6372    0.0000 H   0  0  0  0  0  0  0  0  0  0  0  0
  1  9  1  0  0  0  0
  1 21  1  0  0  0  0
  2 10  1  0  0  0  0
  2 41  1  0  0  0  0
  3 11  1  0  0  0  0
  3 42  1  0  0  0  0
  4 15  2  0  0  0  0
  5 21  2  0  0  0  0
  6  9  2  0  0  0  0
  6 10  1  0  0  0  0
  6 12  1  0  0  0  0
  7  9  1  0  0  0  0
  7 11  2  0  0  0  0
  7 14  1  0  0  0  0
  8 10  2  0  0  0  0
  8 11  1  0  0  0  0
  8 15  1  0  0  0  0
 12 16  1  0  0  0  0
 12 17  2  0  0  0  0
 13 15  1  0  0  0  0
 13 18  1  0  0  0  0
 13 19  1  0  0  0  0
 13 30  1  0  0  0  0
 14 20  1  0  0  0  0
 14 31  1  0  0  0  0
 14 32  1  0  0  0  0
 16 23  2  0  0  0  0
 16 24  1  0  0  0  0
 17 21  1  0  0  0  0
 17 33  1  0  0  0  0
 18 34  1  0  0  0  0
 18 35  1  0  0  0  0
 18 36  1  0  0  0  0
 19 37  1  0  0  0  0
 19 38  1  0  0  0  0
 19 39  1  0  0  0  0
 20 22  2  0  0  0  0
 20 40  1  0  0  0  0
 22 27  1  0  0  0  0
 22 28  1  0  0  0  0
 23 25  1  0  0  0  0
 23 43  1  0  0  0  0
 24 26  2  0  0  0  0
 24 44  1  0  0  0  0
 25 29  2  0  0  0  0
 25 45  1  0  0  0  0
 26 29  1  0  0  0  0
 26 46  1  0  0  0  0
 27 47  1  0  0  0  0
 27 48  1  0  0  0  0
 27 49  1  0  0  0  0
 28 50  1  0  0  0  0
 28 51  1  0  0  0  0
 28 52  1  0  0  0  0
 29 53  1  0  0  0  0
M  END
> <PUBCHEM_COMPOUND_CID>
5277586

> <PUBCHEM_COMPOUND_CANONICALIZED>
1

> <PUBCHEM_CACTVS_COMPLEXITY>
681

> <PUBCHEM_CACTVS_HBOND_ACCEPTOR>
5

> <PUBCHEM_CACTVS_HBOND_DONOR>
2

> <PUBCHEM_CACTVS_ROTATABLE_BOND>
5

> <PUBCHEM_CACTVS_SUBSKEYS>
AAADceB4OAAAAAAAAAAAAAAAAAAAAAAAAAAwYIAAAAAAAACBQAAAGgAACAAADQSAmAAyDoAABgCIAqDSCAACCAAkIAAIiAEECMgMJzaGNRqCe2Cl4BUIuQeI7OzOIAACCAAIAABAAAQQABAAAAAAAAAAAA==

> <PUBCHEM_IUPAC_OPENEYE_NAME>
5,7-dihydroxy-8-(3-methylbut-2-enyl)-6-(2-methylpropanoyl)-4-phenyl-chromen-2-one

> <PUBCHEM_IUPAC_CAS_NAME>
5,7-dihydroxy-8-(3-methylbut-2-enyl)-6-(2-methyl-1-oxopropyl)-4-phenyl-1-benzopyran-2-one

> <PUBCHEM_IUPAC_NAME_MARKUP>
5,7-dihydroxy-8-(3-methylbut-2-enyl)-6-(2-methylpropanoyl)-4-phenylchromen-2-one

> <PUBCHEM_IUPAC_NAME>
5,7-dihydroxy-8-(3-methylbut-2-enyl)-6-(2-methylpropanoyl)-4-phenylchromen-2-one

> <PUBCHEM_IUPAC_SYSTEMATIC_NAME>
8-(3-methylbut-2-enyl)-6-(2-methylpropanoyl)-5,7-bis(oxidanyl)-4-phenyl-chromen-2-one

> <PUBCHEM_IUPAC_TRADITIONAL_NAME>
5,7-dihydroxy-6-isobutyryl-8-(3-methylbut-2-enyl)-4-phenyl-coumarin

> <PUBCHEM_IUPAC_INCHI>
InChI=1S/C24H24O5/c1-13(2)10-11-16-22(27)20(21(26)14(3)4)23(28)19-17(12-18(25)29-24(16)19)15-8-6-5-7-9-15/h5-10,12,14,27-28H,11H2,1-4H3

> <PUBCHEM_IUPAC_INCHIKEY>
IWUNXYBEJCJQHB-UHFFFAOYSA-N

> <PUBCHEM_XLOGP3_AA>
5.6

> <PUBCHEM_EXACT_MASS>
392.16237386

> <PUBCHEM_MOLECULAR_FORMULA>
C24H24O5

> <PUBCHEM_MOLECULAR_WEIGHT>
392.4

> <PUBCHEM_SMILES>
CC(C)C(=O)C1=C(C2=C(C(=C1O)CC=C(C)C)OC(=O)C=C2C3=CC=CC=C3)O

> <PUBCHEM_CONNECTIVITY_SMILES>
CC(C)C(=O)C1=C(C2=C(C(=C1O)CC=C(C)C)OC(=O)C=C2C3=CC=CC=C3)O

> <PUBCHEM_CACTVS_TPSA>
83.8

> <PUBCHEM_MONOISOTOPIC_WEIGHT>
392.16237386

> <PUBCHEM_TOTAL_CHARGE>
0

> <PUBCHEM_HEAVY_ATOM_COUNT>
29

> <PUBCHEM_ATOM_DEF_STEREO_COUNT>
0

> <PUBCHEM_ATOM_UDEF_STEREO_COUNT>
0

> <PUBCHEM_BOND_DEF_STEREO_COUNT>
0

> <PUBCHEM_BOND_UDEF_STEREO_COUNT>
0

> <PUBCHEM_ISOTOPIC_ATOM_COUNT>
0

> <PUBCHEM_COMPONENT_COUNT>
1

> <PUBCHEM_CACTVS_TAUTO_COUNT>
-1

> <PUBCHEM_COORDINATE_TYPE>
1
5
255

> <PUBCHEM_BONDANNOTATIONS>
1  21  8
1  9  8
12  17  8
16  23  8
16  24  8
17  21  8
23  25  8
24  26  8
25  29  8
26  29  8
6  10  8
6  12  8
6  9  8
7  11  8
7  9  8
8  10  8
8  11  8

$$$$
