5462224
  -OEChem-01202613542D

  1  0  0     0  0  0  0  0  0999 V2000
    2.0000    0.0000    0.0000 Mg  0  0  0  0  0 15  0  0  0  0  0  0
M  END
> <PUBCHEM_COMPOUND_CID>
5462224

> <PUBCHEM_COMPOUND_CANONICALIZED>
1

> <PUBCHEM_CACTVS_COMPLEXITY>
0

> <PUBCHEM_CACTVS_HBOND_ACCEPTOR>
0

> <PUBCHEM_CACTVS_HBOND_DONOR>
0

> <PUBCHEM_CACTVS_ROTATABLE_BOND>
0

> <PUBCHEM_CACTVS_SUBSKEYS>
AAADcQAAAAAAACAAAAAAAAAAAAAAAAAAAAAAAAAAAAAAAAAAAAAAAAAAAAAAAAAAAAAAAAAAAAAAAAAAAAAAAAAAAAAAAAAAAAAAAAAAAAAAAAAAAAAAAAAAAAAAAAAAAAAAAAAAAAAAAAAAAAAAAAAAAA==

> <PUBCHEM_IUPAC_OPENEYE_NAME>
magnesium

> <PUBCHEM_IUPAC_CAS_NAME>
magnesium

> <PUBCHEM_IUPAC_NAME_MARKUP>
magnesium

> <PUBCHEM_IUPAC_NAME>
magnesium

> <PUBCHEM_IUPAC_SYSTEMATIC_NAME>
magnesium

> <PUBCHEM_IUPAC_TRADITIONAL_NAME>
magnesium

> <PUBCHEM_IUPAC_INCHI>
InChI=1S/Mg

> <PUBCHEM_IUPAC_INCHIKEY>
FYYHWMGAXLPEAU-UHFFFAOYSA-N

> <PUBCHEM_EXACT_MASS>
23.9850417

> <PUBCHEM_MOLECULAR_FORMULA>
Mg

> <PUBCHEM_MOLECULAR_WEIGHT>
24.305

> <PUBCHEM_SMILES>
[Mg]

> <PUBCHEM_CONNECTIVITY_SMILES>
[Mg]

> <PUBCHEM_CACTVS_TPSA>
0

> <PUBCHEM_MONOISOTOPIC_WEIGHT>
23.9850417

> <PUBCHEM_TOTAL_CHARGE>
0

> <PUBCHEM_HEAVY_ATOM_COUNT>
1

> <PUBCHEM_ATOM_DEF_STEREO_COUNT>
0

> <PUBCHEM_ATOM_UDEF_STEREO_COUNT>
0

> <PUBCHEM_BOND_DEF_STEREO_COUNT>
0

> <PUBCHEM_BOND_UDEF_STEREO_COUNT>
0

> <PUBCHEM_ISOTOPIC_ATOM_COUNT>
0

> <PUBCHEM_COMPONENT_COUNT>
1

> <PUBCHEM_CACTVS_TAUTO_COUNT>
-1

> <PUBCHEM_COORDINATE_TYPE>
1
5
255

$$$$
