131750843
  -OEChem-01202622402D

 89 95  0     1  0  0  0  0  0999 V2000
    2.7875    3.5918    0.0000 O   0  0  0  0  0  0  0  0  0  0  0  0
    5.7044    2.6385    0.0000 O   0  0  0  0  0  0  0  0  0  0  0  0
    4.8996    1.0549    0.0000 O   0  0  0  0  0  0  0  0  0  0  0  0
    7.4977   -2.4451    0.0000 O   0  0  0  0  0  0  0  0  0  0  0  0
    4.8996   -4.9451    0.0000 O   0  0  0  0  0  0  0  0  0  0  0  0
    6.6317   -4.9451    0.0000 O   0  0  0  0  0  0  0  0  0  0  0  0
    8.3637   -0.9451    0.0000 O   0  0  0  0  0  0  0  0  0  0  0  0
    2.0000    7.3480    0.0000 O   0  0  0  0  0  0  0  0  0  0  0  0
    3.3952    8.1504    0.0000 O   0  0  0  0  0  0  0  0  0  0  0  0
    8.3637   -4.9451    0.0000 O   0  0  0  0  0  0  0  0  0  0  0  0
   10.0958   -3.9451    0.0000 O   0  0  0  0  0  0  0  0  0  0  0  0
   10.0958   -1.9451    0.0000 O   0  0  0  0  0  0  0  0  0  0  0  0
    6.6317   -6.9451    0.0000 O   0  0  0  0  0  0  0  0  0  0  0  0
    4.8996   -7.9451    0.0000 O   0  0  0  0  0  0  0  0  0  0  0  0
    3.1676   -6.9451    0.0000 O   0  0  0  0  0  0  0  0  0  0  0  0
    8.3637    1.0549    0.0000 O   0  0  0  0  0  0  0  0  0  0  0  0
    3.1676   -3.9451    0.0000 O   0  0  0  0  0  0  0  0  0  0  0  0
    4.4056    3.5890    0.0000 C   0  0  1  0  0  0  0  0  0  0  0  0
    4.0949    2.6385    0.0000 C   0  0  1  0  0  0  0  0  0  0  0  0
    3.5976    4.1782    0.0000 C   0  0  1  0  0  0  0  0  0  0  0  0
    4.8996    2.0549    0.0000 C   0  0  2  0  0  0  0  0  0  0  0  0
    3.0949    2.6402    0.0000 C   0  0  0  0  0  0  0  0  0  0  0  0
    5.3996    3.5847    0.0000 C   0  0  0  0  0  0  0  0  0  0  0  0
    3.5993    5.1782    0.0000 C   0  0  0  0  0  0  0  0  0  0  0  0
    2.7341    5.6797    0.0000 C   0  0  0  0  0  0  0  0  0  0  0  0
    4.4662    5.6767    0.0000 C   0  0  0  0  0  0  0  0  0  0  0  0
    5.7656    0.5549    0.0000 C   0  0  0  0  0  0  0  0  0  0  0  0
    7.4977   -3.4451    0.0000 C   0  0  1  0  0  0  0  0  0  0  0  0
    8.3637   -3.9451    0.0000 C   0  0  2  0  0  0  0  0  0  0  0  0
    9.2297   -3.4451    0.0000 C   0  0  1  0  0  0  0  0  0  0  0  0
    2.7359    6.6797    0.0000 C   0  0  0  0  0  0  0  0  0  0  0  0
    9.2297   -2.4451    0.0000 C   0  0  2  0  0  0  0  0  0  0  0  0
    5.7656   -6.4451    0.0000 C   0  0  1  0  0  0  0  0  0  0  0  0
    8.3637   -1.9451    0.0000 C   0  0  1  0  0  0  0  0  0  0  0  0
    5.7656   -5.4451    0.0000 C   0  0  1  0  0  0  0  0  0  0  0  0
    4.4679    6.6767    0.0000 C   0  0  0  0  0  0  0  0  0  0  0  0
    4.8996   -6.9451    0.0000 C   0  0  2  0  0  0  0  0  0  0  0  0
    4.0336   -6.4451    0.0000 C   0  0  1  0  0  0  0  0  0  0  0  0
    4.0336   -5.4451    0.0000 C   0  0  1  0  0  0  0  0  0  0  0  0
    6.6317   -3.9451    0.0000 C   0  0  0  0  0  0  0  0  0  0  0  0
    3.6028    7.1782    0.0000 C   0  0  0  0  0  0  0  0  0  0  0  0
    6.6317    1.0549    0.0000 C   0  0  0  0  0  0  0  0  0  0  0  0
    5.7656   -0.4451    0.0000 C   0  0  0  0  0  0  0  0  0  0  0  0
    7.4977   -0.4451    0.0000 C   0  0  0  0  0  0  0  0  0  0  0  0
    3.1676   -4.9451    0.0000 C   0  0  0  0  0  0  0  0  0  0  0  0
    7.4977    0.5549    0.0000 C   0  0  0  0  0  0  0  0  0  0  0  0
    6.6317   -0.9451    0.0000 C   0  0  0  0  0  0  0  0  0  0  0  0
    2.4067    8.2551    0.0000 C   0  0  0  0  0  0  0  0  0  0  0  0
    8.3637    2.0549    0.0000 C   0  0  0  0  0  0  0  0  0  0  0  0
    4.6707    4.3966    0.0000 H   0  0  0  0  0  0  0  0  0  0  0  0
    3.8319    1.8302    0.0000 H   0  0  0  0  0  0  0  0  0  0  0  0
    3.0456    4.4606    0.0000 H   0  0  0  0  0  0  0  0  0  0  0  0
    4.3473    1.7732    0.0000 H   0  0  0  0  0  0  0  0  0  0  0  0
    2.4882    2.5124    0.0000 H   0  0  0  0  0  0  0  0  0  0  0  0
    3.1586    2.0235    0.0000 H   0  0  0  0  0  0  0  0  0  0  0  0
    6.0065    3.7117    0.0000 H   0  0  0  0  0  0  0  0  0  0  0  0
    5.3371    4.2016    0.0000 H   0  0  0  0  0  0  0  0  0  0  0  0
    2.1967    5.3706    0.0000 H   0  0  0  0  0  0  0  0  0  0  0  0
    5.0026    5.3658    0.0000 H   0  0  0  0  0  0  0  0  0  0  0  0
    6.9608   -3.1351    0.0000 H   0  0  0  0  0  0  0  0  0  0  0  0
    7.8268   -4.2551    0.0000 H   0  0  0  0  0  0  0  0  0  0  0  0
    9.2297   -4.0651    0.0000 H   0  0  0  0  0  0  0  0  0  0  0  0
    9.7667   -2.7551    0.0000 H   0  0  0  0  0  0  0  0  0  0  0  0
    5.7656   -7.0651    0.0000 H   0  0  0  0  0  0  0  0  0  0  0  0
    7.8268   -1.6351    0.0000 H   0  0  0  0  0  0  0  0  0  0  0  0
    6.3026   -5.7551    0.0000 H   0  0  0  0  0  0  0  0  0  0  0  0
    4.3627   -7.2551    0.0000 H   0  0  0  0  0  0  0  0  0  0  0  0
    4.0336   -7.0651    0.0000 H   0  0  0  0  0  0  0  0  0  0  0  0
    5.0054    6.9858    0.0000 H   0  0  0  0  0  0  0  0  0  0  0  0
    4.0336   -4.8251    0.0000 H   0  0  0  0  0  0  0  0  0  0  0  0
    6.4196   -3.3625    0.0000 H   0  0  0  0  0  0  0  0  0  0  0  0
    6.0211   -4.0528    0.0000 H   0  0  0  0  0  0  0  0  0  0  0  0
    6.6317    1.6749    0.0000 H   0  0  0  0  0  0  0  0  0  0  0  0
    5.2287   -0.7551    0.0000 H   0  0  0  0  0  0  0  0  0  0  0  0
    2.5570   -4.8375    0.0000 H   0  0  0  0  0  0  0  0  0  0  0  0
    2.9555   -5.5277    0.0000 H   0  0  0  0  0  0  0  0  0  0  0  0
    6.6317   -1.5651    0.0000 H   0  0  0  0  0  0  0  0  0  0  0  0
    8.9007   -5.2551    0.0000 H   0  0  0  0  0  0  0  0  0  0  0  0
    2.5365    8.8614    0.0000 H   0  0  0  0  0  0  0  0  0  0  0  0
    1.8174    8.4479    0.0000 H   0  0  0  0  0  0  0  0  0  0  0  0
   10.6327   -3.6351    0.0000 H   0  0  0  0  0  0  0  0  0  0  0  0
   10.0958   -1.3251    0.0000 H   0  0  0  0  0  0  0  0  0  0  0  0
    7.1686   -6.6351    0.0000 H   0  0  0  0  0  0  0  0  0  0  0  0
    4.3627   -8.2551    0.0000 H   0  0  0  0  0  0  0  0  0  0  0  0
    2.6306   -6.6351    0.0000 H   0  0  0  0  0  0  0  0  0  0  0  0
    2.6306   -3.6351    0.0000 H   0  0  0  0  0  0  0  0  0  0  0  0
    8.9837    2.0549    0.0000 H   0  0  0  0  0  0  0  0  0  0  0  0
    8.3637    2.6749    0.0000 H   0  0  0  0  0  0  0  0  0  0  0  0
    7.7437    2.0549    0.0000 H   0  0  0  0  0  0  0  0  0  0  0  0
  1 20  1  0  0  0  0
  1 22  1  0  0  0  0
  2 21  1  0  0  0  0
  2 23  1  0  0  0  0
 21  3  1  6  0  0  0
  3 27  1  0  0  0  0
  4 28  1  0  0  0  0
  4 34  1  0  0  0  0
  5 35  1  0  0  0  0
  5 39  1  0  0  0  0
 35  6  1  1  0  0  0
  6 40  1  0  0  0  0
 34  7  1  1  0  0  0
  7 44  1  0  0  0  0
  8 31  1  0  0  0  0
  8 48  1  0  0  0  0
  9 41  1  0  0  0  0
  9 48  1  0  0  0  0
 29 10  1  6  0  0  0
 10 78  1  0  0  0  0
 30 11  1  1  0  0  0
 11 81  1  0  0  0  0
 32 12  1  6  0  0  0
 12 82  1  0  0  0  0
 33 13  1  6  0  0  0
 13 83  1  0  0  0  0
 37 14  1  1  0  0  0
 14 84  1  0  0  0  0
 38 15  1  6  0  0  0
 15 85  1  0  0  0  0
 16 46  1  0  0  0  0
 16 49  1  0  0  0  0
 17 45  1  0  0  0  0
 17 86  1  0  0  0  0
 18 19  1  0  0  0  0
 18 20  1  0  0  0  0
 18 23  1  0  0  0  0
 18 50  1  6  0  0  0
 19 21  1  0  0  0  0
 19 22  1  0  0  0  0
 19 51  1  6  0  0  0
 20 24  1  6  0  0  0
 20 52  1  0  0  0  0
 21 53  1  0  0  0  0
 22 54  1  0  0  0  0
 22 55  1  0  0  0  0
 23 56  1  0  0  0  0
 23 57  1  0  0  0  0
 24 25  2  0  0  0  0
 24 26  1  0  0  0  0
 25 31  1  0  0  0  0
 25 58  1  0  0  0  0
 26 36  2  0  0  0  0
 26 59  1  0  0  0  0
 27 42  2  0  0  0  0
 27 43  1  0  0  0  0
 28 29  1  0  0  0  0
 28 40  1  1  0  0  0
 28 60  1  0  0  0  0
 29 30  1  0  0  0  0
 29 61  1  0  0  0  0
 30 32  1  0  0  0  0
 30 62  1  0  0  0  0
 31 41  2  0  0  0  0
 32 34  1  0  0  0  0
 32 63  1  0  0  0  0
 33 35  1  0  0  0  0
 33 37  1  0  0  0  0
 33 64  1  0  0  0  0
 34 65  1  0  0  0  0
 35 66  1  0  0  0  0
 36 41  1  0  0  0  0
 36 69  1  0  0  0  0
 37 38  1  0  0  0  0
 37 67  1  0  0  0  0
 38 39  1  0  0  0  0
 38 68  1  0  0  0  0
 39 45  1  1  0  0  0
 39 70  1  0  0  0  0
 40 71  1  0  0  0  0
 40 72  1  0  0  0  0
 42 46  1  0  0  0  0
 42 73  1  0  0  0  0
 43 47  2  0  0  0  0
 43 74  1  0  0  0  0
 44 46  2  0  0  0  0
 44 47  1  0  0  0  0
 45 75  1  0  0  0  0
 45 76  1  0  0  0  0
 47 77  1  0  0  0  0
 48 79  1  0  0  0  0
 48 80  1  0  0  0  0
 49 87  1  0  0  0  0
 49 88  1  0  0  0  0
 49 89  1  0  0  0  0
M  END
> <PUBCHEM_COMPOUND_CID>
131750843

> <PUBCHEM_COMPOUND_CANONICALIZED>
1

> <PUBCHEM_CACTVS_COMPLEXITY>
1070

> <PUBCHEM_CACTVS_HBOND_ACCEPTOR>
17

> <PUBCHEM_CACTVS_HBOND_DONOR>
7

> <PUBCHEM_CACTVS_ROTATABLE_BOND>
10

> <PUBCHEM_CACTVS_SUBSKEYS>
AAADcfB8PgAAAAAAAAAAAAAAAAAAASJEgAA0aIEAAAASAEgBQAAAGgAACAAADRSwmAMyDoAABgCAAiBCAAACCAAgIAAIiAAGiIgdNyKEMRqieCKlwBUPqAfA4PwOoQABCAAAQABCAAIQAACAAAAAAAAAAA==

> <PUBCHEM_IUPAC_OPENEYE_NAME>
(2R,3R,4S,5S,6R)-2-[[(2R,3S,4S,5R,6S)-6-[4-[[(3S,3aR,6R,6aR)-3-(1,3-benzodioxol-5-yl)-1,3,3a,4,6,6a-hexahydrofuro[3,4-c]furan-6-yl]oxy]-2-methoxy-phenoxy]-3,4,5-trihydroxy-tetrahydropyran-2-yl]methoxy]-6-(hydroxymethyl)tetrahydropyran-3,4,5-triol

> <PUBCHEM_IUPAC_CAS_NAME>
(2R,3R,4S,5S,6R)-2-[[(2R,3S,4S,5R,6S)-6-[4-[[(3S,3aR,6R,6aR)-3-(1,3-benzodioxol-5-yl)-1,3,3a,4,6,6a-hexahydrofuro[3,4-c]furan-6-yl]oxy]-2-methoxyphenoxy]-3,4,5-trihydroxy-2-oxanyl]methoxy]-6-(hydroxymethyl)oxane-3,4,5-triol

> <PUBCHEM_IUPAC_NAME_MARKUP>
(2<I>R</I>,3<I>R</I>,4<I>S</I>,5<I>S</I>,6<I>R</I>)-2-[[(2<I>R</I>,3<I>S</I>,4<I>S</I>,5<I>R</I>,6<I>S</I>)-6-[4-[[(3<I>S</I>,3<I>a</I><I>R</I>,6<I>R</I>,6<I>a</I><I>R</I>)-3-(1,3-benzodioxol-5-yl)-1,3,3<I>a</I>,4,6,6<I>a</I>-hexahydrofuro[3,4-c]furan-6-yl]oxy]-2-methoxyphenoxy]-3,4,5-trihydroxyoxan-2-yl]methoxy]-6-(hydroxymethyl)oxane-3,4,5-triol

> <PUBCHEM_IUPAC_NAME>
(2R,3R,4S,5S,6R)-2-[[(2R,3S,4S,5R,6S)-6-[4-[[(3S,3aR,6R,6aR)-3-(1,3-benzodioxol-5-yl)-1,3,3a,4,6,6a-hexahydrofuro[3,4-c]furan-6-yl]oxy]-2-methoxyphenoxy]-3,4,5-trihydroxyoxan-2-yl]methoxy]-6-(hydroxymethyl)oxane-3,4,5-triol

> <PUBCHEM_IUPAC_SYSTEMATIC_NAME>
(2R,3R,4S,5S,6R)-2-[[(2R,3S,4S,5R,6S)-6-[4-[[(3S,3aR,6R,6aR)-3-(1,3-benzodioxol-5-yl)-1,3,3a,4,6,6a-hexahydrofuro[3,4-c]furan-6-yl]oxy]-2-methoxy-phenoxy]-3,4,5-tris(oxidanyl)oxan-2-yl]methoxy]-6-(hydroxymethyl)oxane-3,4,5-triol

> <PUBCHEM_IUPAC_TRADITIONAL_NAME>
(2R,3R,4S,5S,6R)-2-[[(2R,3S,4S,5R,6S)-6-[4-[[(3S,3aR,6R,6aR)-3-(1,3-benzodioxol-5-yl)-1,3,3a,4,6,6a-hexahydrofuro[3,4-c]furan-6-yl]oxy]-2-methoxy-phenoxy]-3,4,5-trihydroxy-tetrahydropyran-2-yl]methoxy]-6-methylol-tetrahydropyran-3,4,5-triol

> <PUBCHEM_IUPAC_INCHI>
InChI=1S/C32H40O17/c1-40-19-7-14(46-30-16-10-41-29(15(16)9-42-30)13-2-4-17-20(6-13)45-12-44-17)3-5-18(19)47-32-28(39)26(37)24(35)22(49-32)11-43-31-27(38)25(36)23(34)21(8-33)48-31/h2-7,15-16,21-39H,8-12H2,1H3/t15-,16-,21+,22+,23+,24+,25-,26-,27+,28+,29+,30+,31+,32+/m0/s1

> <PUBCHEM_IUPAC_INCHIKEY>
XTMLHNGHWHHERJ-FUPWJLLWSA-N

> <PUBCHEM_XLOGP3_AA>
-1.2

> <PUBCHEM_EXACT_MASS>
696.22654980

> <PUBCHEM_MOLECULAR_FORMULA>
C32H40O17

> <PUBCHEM_MOLECULAR_WEIGHT>
696.6

> <PUBCHEM_SMILES>
COC1=C(C=CC(=C1)O[C@@H]2[C@H]3CO[C@@H]([C@H]3CO2)C4=CC5=C(C=C4)OCO5)O[C@H]6[C@@H]([C@H]([C@@H]([C@H](O6)CO[C@H]7[C@@H]([C@H]([C@@H]([C@H](O7)CO)O)O)O)O)O)O

> <PUBCHEM_CONNECTIVITY_SMILES>
COC1=C(C=CC(=C1)OC2C3COC(C3CO2)C4=CC5=C(C=C4)OCO5)OC6C(C(C(C(O6)COC7C(C(C(C(O7)CO)O)O)O)O)O)O

> <PUBCHEM_CACTVS_TPSA>
234

> <PUBCHEM_MONOISOTOPIC_WEIGHT>
696.22654980

> <PUBCHEM_TOTAL_CHARGE>
0

> <PUBCHEM_HEAVY_ATOM_COUNT>
49

> <PUBCHEM_ATOM_DEF_STEREO_COUNT>
14

> <PUBCHEM_ATOM_UDEF_STEREO_COUNT>
0

> <PUBCHEM_BOND_DEF_STEREO_COUNT>
0

> <PUBCHEM_BOND_UDEF_STEREO_COUNT>
0

> <PUBCHEM_ISOTOPIC_ATOM_COUNT>
0

> <PUBCHEM_COMPONENT_COUNT>
1

> <PUBCHEM_CACTVS_TAUTO_COUNT>
-1

> <PUBCHEM_COORDINATE_TYPE>
1
5
255

> <PUBCHEM_BONDANNOTATIONS>
29  10  6
30  11  5
32  12  6
33  13  6
37  14  5
38  15  6
18  50  6
19  51  6
20  24  6
24  25  8
24  26  8
25  31  8
26  36  8
27  42  8
27  43  8
28  40  5
21  3  6
31  41  8
36  41  8
39  45  5
42  46  8
43  47  8
44  46  8
44  47  8
35  6  5
34  7  5

$$$$
