71993
  -OEChem-01202613422D

 34 32  0     0  0  0  0  0  0999 V2000
    3.4030   -0.9393    0.0000 Pt  0  2  0  0  0  0  0  0  0  0  0  0
    3.4030   -2.3536    0.0000 S   0  0  0  0  0  0  0  0  0  0  0  0
    4.1101   -1.6465    0.0000 O   0  0  0  0  0  0  0  0  0  0  0  0
    2.6959   -1.6465    0.0000 O   0  0  0  0  0  0  0  0  0  0  0  0
    2.6959   -3.0607    0.0000 O   0  0  0  0  0  0  0  0  0  0  0  0
    4.1101   -3.0607    0.0000 O   0  0  0  0  0  0  0  0  0  0  0  0
    2.5369   -0.4393    0.0000 N   0  5  0  0  0  0  0  0  0  0  0  0
    4.2690   -0.4393    0.0000 N   0  5  0  0  0  0  0  0  0  0  0  0
    3.4030    1.0607    0.0000 C   0  0  0  0  0  0  0  0  0  0  0  0
    2.5369    0.5607    0.0000 C   0  0  0  0  0  0  0  0  0  0  0  0
    4.2690    0.5607    0.0000 C   0  0  0  0  0  0  0  0  0  0  0  0
    2.5369    1.5607    0.0000 C   0  0  0  0  0  0  0  0  0  0  0  0
    4.2690    1.5607    0.0000 C   0  0  0  0  0  0  0  0  0  0  0  0
    2.5369    2.5607    0.0000 C   0  0  0  0  0  0  0  0  0  0  0  0
    4.2690    2.5607    0.0000 C   0  0  0  0  0  0  0  0  0  0  0  0
    3.4030    3.0607    0.0000 C   0  0  0  0  0  0  0  0  0  0  0  0
    2.3249    1.1433    0.0000 H   0  0  0  0  0  0  0  0  0  0  0  0
    1.9264    0.4530    0.0000 H   0  0  0  0  0  0  0  0  0  0  0  0
    4.8796    0.4530    0.0000 H   0  0  0  0  0  0  0  0  0  0  0  0
    4.4810    1.1433    0.0000 H   0  0  0  0  0  0  0  0  0  0  0  0
    1.9264    1.6683    0.0000 H   0  0  0  0  0  0  0  0  0  0  0  0
    2.3249    0.9781    0.0000 H   0  0  0  0  0  0  0  0  0  0  0  0
    4.4810    0.9781    0.0000 H   0  0  0  0  0  0  0  0  0  0  0  0
    4.8796    1.6683    0.0000 H   0  0  0  0  0  0  0  0  0  0  0  0
    2.0000   -0.7493    0.0000 H   0  0  0  0  0  0  0  0  0  0  0  0
    4.8059   -0.7493    0.0000 H   0  0  0  0  0  0  0  0  0  0  0  0
    2.3249    3.1433    0.0000 H   0  0  0  0  0  0  0  0  0  0  0  0
    1.9264    2.4530    0.0000 H   0  0  0  0  0  0  0  0  0  0  0  0
    4.8796    2.4530    0.0000 H   0  0  0  0  0  0  0  0  0  0  0  0
    4.4810    3.1433    0.0000 H   0  0  0  0  0  0  0  0  0  0  0  0
    3.8015    3.5356    0.0000 H   0  0  0  0  0  0  0  0  0  0  0  0
    3.0044    3.5356    0.0000 H   0  0  0  0  0  0  0  0  0  0  0  0
    4.7301   -1.6465    0.0000 H   0  0  0  0  0  0  0  0  0  0  0  0
    2.0759   -1.6465    0.0000 H   0  0  0  0  0  0  0  0  0  0  0  0
  2  3  1  0  0  0  0
  2  4  1  0  0  0  0
  2  5  2  0  0  0  0
  2  6  2  0  0  0  0
  3 33  1  0  0  0  0
  4 34  1  0  0  0  0
  7 10  1  0  0  0  0
  7 25  1  0  0  0  0
  8 11  1  0  0  0  0
  8 26  1  0  0  0  0
  9 10  1  0  0  0  0
  9 11  1  0  0  0  0
  9 12  1  0  0  0  0
  9 13  1  0  0  0  0
 10 17  1  0  0  0  0
 10 18  1  0  0  0  0
 11 19  1  0  0  0  0
 11 20  1  0  0  0  0
 12 14  1  0  0  0  0
 12 21  1  0  0  0  0
 12 22  1  0  0  0  0
 13 15  1  0  0  0  0
 13 23  1  0  0  0  0
 13 24  1  0  0  0  0
 14 16  1  0  0  0  0
 14 27  1  0  0  0  0
 14 28  1  0  0  0  0
 15 16  1  0  0  0  0
 15 29  1  0  0  0  0
 15 30  1  0  0  0  0
 16 31  1  0  0  0  0
 16 32  1  0  0  0  0
M  CHG  3   1   2   7  -1   8  -1
M  END
> <PUBCHEM_COMPOUND_CID>
71993

> <PUBCHEM_COMPOUND_CANONICALIZED>
1

> <PUBCHEM_CACTVS_COMPLEXITY>
246

> <PUBCHEM_CACTVS_HBOND_ACCEPTOR>
6

> <PUBCHEM_CACTVS_HBOND_DONOR>
4

> <PUBCHEM_CACTVS_ROTATABLE_BOND>
0

> <PUBCHEM_CACTVS_SUBSKEYS>
AAADceBzOABAAAAAAAAABAAAAABIAAAAAAA8QAAAAAAAAAAAAAAAHAAQCAAADgDBAAQAAABAAIAAAAAAADAAAAAAAAAAAIAAAAAAAAIAwAAAAAAAAAAAAAEQgEAPAAAAAAAAAAAAAAAAAAAAAAAAAAAAAA==

> <PUBCHEM_IUPAC_OPENEYE_NAME>
[1-(azanidylmethyl)cyclohexyl]methylazanide;platinum(2+);sulfuric acid

> <PUBCHEM_IUPAC_CAS_NAME>
[1-(azanidylmethyl)cyclohexyl]methylazanide;platinum(2+);sulfuric acid

> <PUBCHEM_IUPAC_NAME_MARKUP>
[1-(azanidylmethyl)cyclohexyl]methylazanide;platinum(2+);sulfuric acid

> <PUBCHEM_IUPAC_NAME>
[1-(azanidylmethyl)cyclohexyl]methylazanide;platinum(2+);sulfuric acid

> <PUBCHEM_IUPAC_SYSTEMATIC_NAME>
[1-(azanidylmethyl)cyclohexyl]methylazanide;platinum(2+);sulfuric acid

> <PUBCHEM_IUPAC_TRADITIONAL_NAME>
[1-(amidylmethyl)cyclohexyl]methylazanide;platinum(2+);sulfuric acid

> <PUBCHEM_IUPAC_INCHI>
InChI=1S/C8H16N2.H2O4S.Pt/c9-6-8(7-10)4-2-1-3-5-8;1-5(2,3)4;/h9-10H,1-7H2;(H2,1,2,3,4);/q-2;;+2

> <PUBCHEM_IUPAC_INCHIKEY>
KMLCRELJHYKIIL-UHFFFAOYSA-N

> <PUBCHEM_EXACT_MASS>
433.063523

> <PUBCHEM_MOLECULAR_FORMULA>
C8H18N2O4PtS

> <PUBCHEM_MOLECULAR_WEIGHT>
433.39

> <PUBCHEM_SMILES>
C1CCC(CC1)(C[NH-])C[NH-].OS(=O)(=O)O.[Pt+2]

> <PUBCHEM_CONNECTIVITY_SMILES>
C1CCC(CC1)(C[NH-])C[NH-].OS(=O)(=O)O.[Pt+2]

> <PUBCHEM_CACTVS_TPSA>
85

> <PUBCHEM_MONOISOTOPIC_WEIGHT>
433.063523

> <PUBCHEM_TOTAL_CHARGE>
0

> <PUBCHEM_HEAVY_ATOM_COUNT>
16

> <PUBCHEM_ATOM_DEF_STEREO_COUNT>
0

> <PUBCHEM_ATOM_UDEF_STEREO_COUNT>
0

> <PUBCHEM_BOND_DEF_STEREO_COUNT>
0

> <PUBCHEM_BOND_UDEF_STEREO_COUNT>
0

> <PUBCHEM_ISOTOPIC_ATOM_COUNT>
0

> <PUBCHEM_COMPONENT_COUNT>
3

> <PUBCHEM_CACTVS_TAUTO_COUNT>
-1

> <PUBCHEM_NONSTANDARDBOND>
1  3  6
1  4  6
1  7  6
1  8  6

> <PUBCHEM_COORDINATE_TYPE>
1
5
255

$$$$
