91819955
  -OEChem-01202622392D

 24 23  0     1  0  0  0  0  0999 V2000
    5.1350    0.2315    0.0000 S   0  0  3  0  0  0  0  0  0  0  0  0
    5.1350   -0.7685    0.0000 O   0  0  0  0  0  0  0  0  0  0  0  0
    4.2690   -1.2685    0.0000 O   0  5  0  0  0  0  0  0  0  0  0  0
    2.5369   -1.2685    0.0000 O   0  0  0  0  0  0  0  0  0  0  0  0
    2.5369    0.7315    0.0000 N   0  3  0  0  0  0  0  0  0  0  0  0
    3.4030    0.2315    0.0000 C   0  0  1  0  0  0  0  0  0  0  0  0
    4.2690    0.7315    0.0000 C   0  0  0  0  0  0  0  0  0  0  0  0
    6.0010    0.7315    0.0000 C   0  0  0  0  0  0  0  0  0  0  0  0
    6.8671    0.2315    0.0000 C   0  0  0  0  0  0  0  0  0  0  0  0
    3.4030   -0.7685    0.0000 C   0  0  0  0  0  0  0  0  0  0  0  0
    7.7331    0.7315    0.0000 C   0  0  0  0  0  0  0  0  0  0  0  0
    3.4030    0.8515    0.0000 H   0  0  0  0  0  0  0  0  0  0  0  0
    4.6675    1.2065    0.0000 H   0  0  0  0  0  0  0  0  0  0  0  0
    3.8705    1.2065    0.0000 H   0  0  0  0  0  0  0  0  0  0  0  0
    6.3996    1.2065    0.0000 H   0  0  0  0  0  0  0  0  0  0  0  0
    5.6025    1.2065    0.0000 H   0  0  0  0  0  0  0  0  0  0  0  0
    6.4685   -0.2434    0.0000 H   0  0  0  0  0  0  0  0  0  0  0  0
    7.2656   -0.2434    0.0000 H   0  0  0  0  0  0  0  0  0  0  0  0
    2.0000    1.0415    0.0000 H   0  0  0  0  0  0  0  0  0  0  0  0
    2.2269    0.1946    0.0000 H   0  0  0  0  0  0  0  0  0  0  0  0
    2.8469    1.2685    0.0000 H   0  0  0  0  0  0  0  0  0  0  0  0
    8.0431    0.1946    0.0000 H   0  0  0  0  0  0  0  0  0  0  0  0
    8.2700    1.0415    0.0000 H   0  0  0  0  0  0  0  0  0  0  0  0
    7.4231    1.2685    0.0000 H   0  0  0  0  0  0  0  0  0  0  0  0
  1  2  2  0  0  0  0
  1  7  1  0  0  0  0
  1  8  1  0  0  0  0
  3 10  1  0  0  0  0
  4 10  2  0  0  0  0
  6  5  1  1  0  0  0
  5 19  1  0  0  0  0
  5 20  1  0  0  0  0
  5 21  1  0  0  0  0
  6  7  1  0  0  0  0
  6 10  1  0  0  0  0
  6 12  1  0  0  0  0
  7 13  1  0  0  0  0
  7 14  1  0  0  0  0
  8  9  1  0  0  0  0
  8 15  1  0  0  0  0
  8 16  1  0  0  0  0
  9 11  1  0  0  0  0
  9 17  1  0  0  0  0
  9 18  1  0  0  0  0
 11 22  1  0  0  0  0
 11 23  1  0  0  0  0
 11 24  1  0  0  0  0
M  CHG  2   3  -1   5   1
M  END
> <PUBCHEM_COMPOUND_CID>
91819955

> <PUBCHEM_COMPOUND_CANONICALIZED>
1

> <PUBCHEM_CACTVS_COMPLEXITY>
154

> <PUBCHEM_CACTVS_HBOND_ACCEPTOR>
4

> <PUBCHEM_CACTVS_HBOND_DONOR>
1

> <PUBCHEM_CACTVS_ROTATABLE_BOND>
4

> <PUBCHEM_CACTVS_SUBSKEYS>
AAADccBiMABAAAAAAAAAAAAAAAAAAAAAAAAAAAAAAAAAAAAAAAAAHgQQAAAACCjFwASCCABAAAoIAACQCEBAAAAAABAAAIGAAAACAAAgAAAAAAAAEAAgAAAAAAAAAAAAAAAAAAAAAAAAAAAAAAAAAAAAAA==

> <PUBCHEM_IUPAC_OPENEYE_NAME>
(2R)-2-azaniumyl-3-propylsulfinyl-propanoate

> <PUBCHEM_IUPAC_CAS_NAME>
(2R)-2-ammonio-3-propylsulfinylpropanoate

> <PUBCHEM_IUPAC_NAME_MARKUP>
(2<I>R</I>)-2-azaniumyl-3-propylsulfinylpropanoate

> <PUBCHEM_IUPAC_NAME>
(2R)-2-azaniumyl-3-propylsulfinylpropanoate

> <PUBCHEM_IUPAC_SYSTEMATIC_NAME>
(2R)-2-azaniumyl-3-propylsulfinyl-propanoate

> <PUBCHEM_IUPAC_TRADITIONAL_NAME>
(2R)-2-ammonio-3-propylsulfinyl-propionate

> <PUBCHEM_IUPAC_INCHI>
InChI=1S/C6H13NO3S/c1-2-3-11(10)4-5(7)6(8)9/h5H,2-4,7H2,1H3,(H,8,9)/t5-,11?/m0/s1

> <PUBCHEM_IUPAC_INCHIKEY>
JZKMSAGUCSIIAH-ITZCMCNPSA-N

> <PUBCHEM_XLOGP3_AA>
-2.8

> <PUBCHEM_EXACT_MASS>
179.06161445

> <PUBCHEM_MOLECULAR_FORMULA>
C6H13NO3S

> <PUBCHEM_MOLECULAR_WEIGHT>
179.24

> <PUBCHEM_SMILES>
CCCS(=O)C[C@@H](C(=O)[O-])[NH3+]

> <PUBCHEM_CONNECTIVITY_SMILES>
CCCS(=O)CC(C(=O)[O-])[NH3+]

> <PUBCHEM_CACTVS_TPSA>
104

> <PUBCHEM_MONOISOTOPIC_WEIGHT>
179.06161445

> <PUBCHEM_TOTAL_CHARGE>
0

> <PUBCHEM_HEAVY_ATOM_COUNT>
11

> <PUBCHEM_ATOM_DEF_STEREO_COUNT>
1

> <PUBCHEM_ATOM_UDEF_STEREO_COUNT>
1

> <PUBCHEM_BOND_DEF_STEREO_COUNT>
0

> <PUBCHEM_BOND_UDEF_STEREO_COUNT>
0

> <PUBCHEM_ISOTOPIC_ATOM_COUNT>
0

> <PUBCHEM_COMPONENT_COUNT>
1

> <PUBCHEM_CACTVS_TAUTO_COUNT>
-1

> <PUBCHEM_COORDINATE_TYPE>
1
5
255

> <PUBCHEM_BONDANNOTATIONS>
1  8  3
6  5  5

$$$$
