169440949
  -OEChem-01202622412D

 67 67  0     1  0  0  0  0  0999 V2000
    2.0000   -3.5950    0.0000 Na  0  3  0  0  0  0  0  0  0  0  0  0
    5.4641   -3.5950    0.0000 O   0  0  0  0  0  0  0  0  0  0  0  0
    7.1962   -3.5950    0.0000 O   0  0  0  0  0  0  0  0  0  0  0  0
    5.4641   -6.5950    0.0000 O   0  0  0  0  0  0  0  0  0  0  0  0
    3.7320   -5.5950    0.0000 O   0  0  0  0  0  0  0  0  0  0  0  0
    7.1962   -5.5950    0.0000 O   0  0  0  0  0  0  0  0  0  0  0  0
    2.8660   -4.0950    0.0000 O   0  5  0  0  0  0  0  0  0  0  0  0
    3.7320   -2.5950    0.0000 O   0  0  0  0  0  0  0  0  0  0  0  0
    8.0622    3.9050    0.0000 O   0  0  0  0  0  0  0  0  0  0  0  0
    8.9282   -2.5950    0.0000 O   0  0  0  0  0  0  0  0  0  0  0  0
    7.1962    2.4050    0.0000 O   0  0  0  0  0  0  0  0  0  0  0  0
    5.4641   -5.5950    0.0000 C   0  0  1  0  0  0  0  0  0  0  0  0
    4.5981   -5.0950    0.0000 C   0  0  1  0  0  0  0  0  0  0  0  0
    6.3301   -5.0950    0.0000 C   0  0  2  0  0  0  0  0  0  0  0  0
    4.5981   -4.0950    0.0000 C   0  0  1  0  0  0  0  0  0  0  0  0
    6.3301   -4.0950    0.0000 C   0  0  1  0  0  0  0  0  0  0  0  0
    3.7320   -3.5950    0.0000 C   0  0  0  0  0  0  0  0  0  0  0  0
    8.9282    3.4050    0.0000 C   0  0  1  0  0  0  0  0  0  0  0  0
    9.7942    3.9050    0.0000 C   0  0  0  0  0  0  0  0  0  0  0  0
    7.1962   -2.5950    0.0000 C   0  0  0  0  0  0  0  0  0  0  0  0
    9.7942    4.9050    0.0000 C   0  0  0  0  0  0  0  0  0  0  0  0
    8.9282    2.4050    0.0000 C   0  0  0  0  0  0  0  0  0  0  0  0
   10.6603    5.4050    0.0000 C   0  0  0  0  0  0  0  0  0  0  0  0
    7.1962    0.4050    0.0000 C   0  0  0  0  0  0  0  0  0  0  0  0
    8.0622    0.9050    0.0000 C   0  0  0  0  0  0  0  0  0  0  0  0
    7.1962   -0.5950    0.0000 C   0  0  0  0  0  0  0  0  0  0  0  0
    8.0622   -2.0950    0.0000 C   0  0  0  0  0  0  0  0  0  0  0  0
    8.0622    1.9050    0.0000 C   0  0  0  0  0  0  0  0  0  0  0  0
    6.3301   -2.0950    0.0000 C   0  0  0  0  0  0  0  0  0  0  0  0
    8.0622   -1.0950    0.0000 C   0  0  0  0  0  0  0  0  0  0  0  0
   10.6603    6.4050    0.0000 C   0  0  0  0  0  0  0  0  0  0  0  0
    6.3301   -1.0950    0.0000 C   0  0  0  0  0  0  0  0  0  0  0  0
   11.5263    6.9050    0.0000 C   0  0  0  0  0  0  0  0  0  0  0  0
    9.7942   -2.0950    0.0000 C   0  0  0  0  0  0  0  0  0  0  0  0
    4.9272   -5.9050    0.0000 H   0  0  0  0  0  0  0  0  0  0  0  0
    4.0611   -4.7850    0.0000 H   0  0  0  0  0  0  0  0  0  0  0  0
    6.3301   -5.7150    0.0000 H   0  0  0  0  0  0  0  0  0  0  0  0
    4.5981   -3.4750    0.0000 H   0  0  0  0  0  0  0  0  0  0  0  0
    6.8671   -4.4050    0.0000 H   0  0  0  0  0  0  0  0  0  0  0  0
    6.0010   -6.9050    0.0000 H   0  0  0  0  0  0  0  0  0  0  0  0
    7.7331   -5.2850    0.0000 H   0  0  0  0  0  0  0  0  0  0  0  0
    3.7320   -6.2150    0.0000 H   0  0  0  0  0  0  0  0  0  0  0  0
    8.9282    4.0250    0.0000 H   0  0  0  0  0  0  0  0  0  0  0  0
   10.0063    3.3224    0.0000 H   0  0  0  0  0  0  0  0  0  0  0  0
   10.4048    4.0127    0.0000 H   0  0  0  0  0  0  0  0  0  0  0  0
    9.5822    5.4876    0.0000 H   0  0  0  0  0  0  0  0  0  0  0  0
    9.1836    4.7973    0.0000 H   0  0  0  0  0  0  0  0  0  0  0  0
    9.1403    1.8224    0.0000 H   0  0  0  0  0  0  0  0  0  0  0  0
    9.5388    2.5127    0.0000 H   0  0  0  0  0  0  0  0  0  0  0  0
   10.8723    4.8224    0.0000 H   0  0  0  0  0  0  0  0  0  0  0  0
   11.2708    5.5127    0.0000 H   0  0  0  0  0  0  0  0  0  0  0  0
    6.9841    0.9876    0.0000 H   0  0  0  0  0  0  0  0  0  0  0  0
    6.5856    0.2973    0.0000 H   0  0  0  0  0  0  0  0  0  0  0  0
    8.2742    0.3224    0.0000 H   0  0  0  0  0  0  0  0  0  0  0  0
    8.6728    1.0127    0.0000 H   0  0  0  0  0  0  0  0  0  0  0  0
    5.7932   -2.4050    0.0000 H   0  0  0  0  0  0  0  0  0  0  0  0
   10.4482    6.9876    0.0000 H   0  0  0  0  0  0  0  0  0  0  0  0
   10.0497    6.2973    0.0000 H   0  0  0  0  0  0  0  0  0  0  0  0
    8.5991   -0.7850    0.0000 H   0  0  0  0  0  0  0  0  0  0  0  0
    5.7932   -0.7850    0.0000 H   0  0  0  0  0  0  0  0  0  0  0  0
    8.0622    4.5250    0.0000 H   0  0  0  0  0  0  0  0  0  0  0  0
   11.8363    6.3681    0.0000 H   0  0  0  0  0  0  0  0  0  0  0  0
   12.0632    7.2150    0.0000 H   0  0  0  0  0  0  0  0  0  0  0  0
   11.2163    7.4419    0.0000 H   0  0  0  0  0  0  0  0  0  0  0  0
   10.1042   -2.6319    0.0000 H   0  0  0  0  0  0  0  0  0  0  0  0
   10.3312   -1.7850    0.0000 H   0  0  0  0  0  0  0  0  0  0  0  0
    9.4842   -1.5581    0.0000 H   0  0  0  0  0  0  0  0  0  0  0  0
  2 15  1  0  0  0  0
  2 16  1  0  0  0  0
 16  3  1  1  0  0  0
  3 20  1  0  0  0  0
 12  4  1  1  0  0  0
  4 40  1  0  0  0  0
 13  5  1  6  0  0  0
  5 42  1  0  0  0  0
 14  6  1  6  0  0  0
  6 41  1  0  0  0  0
  7 17  1  0  0  0  0
  8 17  2  0  0  0  0
 18  9  1  1  0  0  0
  9 61  1  0  0  0  0
 10 27  1  0  0  0  0
 10 34  1  0  0  0  0
 11 28  2  0  0  0  0
 12 13  1  0  0  0  0
 12 14  1  0  0  0  0
 12 35  1  0  0  0  0
 13 15  1  0  0  0  0
 13 36  1  0  0  0  0
 14 16  1  0  0  0  0
 14 37  1  0  0  0  0
 15 17  1  1  0  0  0
 15 38  1  0  0  0  0
 16 39  1  0  0  0  0
 18 19  1  0  0  0  0
 18 22  1  0  0  0  0
 18 43  1  0  0  0  0
 19 21  1  0  0  0  0
 19 44  1  0  0  0  0
 19 45  1  0  0  0  0
 20 27  2  0  0  0  0
 20 29  1  0  0  0  0
 21 23  1  0  0  0  0
 21 46  1  0  0  0  0
 21 47  1  0  0  0  0
 22 28  1  0  0  0  0
 22 48  1  0  0  0  0
 22 49  1  0  0  0  0
 23 31  1  0  0  0  0
 23 50  1  0  0  0  0
 23 51  1  0  0  0  0
 24 25  1  0  0  0  0
 24 26  1  0  0  0  0
 24 52  1  0  0  0  0
 24 53  1  0  0  0  0
 25 28  1  0  0  0  0
 25 54  1  0  0  0  0
 25 55  1  0  0  0  0
 26 30  2  0  0  0  0
 26 32  1  0  0  0  0
 27 30  1  0  0  0  0
 29 32  2  0  0  0  0
 29 56  1  0  0  0  0
 30 59  1  0  0  0  0
 31 33  1  0  0  0  0
 31 57  1  0  0  0  0
 31 58  1  0  0  0  0
 32 60  1  0  0  0  0
 33 62  1  0  0  0  0
 33 63  1  0  0  0  0
 33 64  1  0  0  0  0
 34 65  1  0  0  0  0
 34 66  1  0  0  0  0
 34 67  1  0  0  0  0
M  CHG  2   1   1   7  -1
M  END
> <PUBCHEM_COMPOUND_CID>
169440949

> <PUBCHEM_COMPOUND_CANONICALIZED>
1

> <PUBCHEM_CACTVS_COMPLEXITY>
621

> <PUBCHEM_CACTVS_HBOND_ACCEPTOR>
10

> <PUBCHEM_CACTVS_HBOND_DONOR>
4

> <PUBCHEM_CACTVS_ROTATABLE_BOND>
13

> <PUBCHEM_CACTVS_SUBSKEYS>
AAADcfB4PCAAAAAAAAAAAAAAAAAAAAAAAAA0QAAAAAAAAAABAAAAGgAACAAADBSwmAMyDoAABgCIAqDSCAICCAAgIAAIiAFGiIgdNjaEMR6ieCKl4BEPqAfK7PzOIAABAAAAQABAAAIAAACAAAAAAAAAAA==

> <PUBCHEM_IUPAC_OPENEYE_NAME>
sodium (2S,3S,4S,5R,6S)-3,4,5-trihydroxy-6-[4-[(5S)-5-hydroxy-3-oxo-decyl]-2-methoxy-phenoxy]tetrahydropyran-2-carboxylate

> <PUBCHEM_IUPAC_CAS_NAME>
sodium (2S,3S,4S,5R,6S)-3,4,5-trihydroxy-6-[4-[(5S)-5-hydroxy-3-oxodecyl]-2-methoxyphenoxy]-2-oxanecarboxylate

> <PUBCHEM_IUPAC_NAME_MARKUP>
sodium (2<I>S</I>,3<I>S</I>,4<I>S</I>,5<I>R</I>,6<I>S</I>)-3,4,5-trihydroxy-6-[4-[(5<I>S</I>)-5-hydroxy-3-oxodecyl]-2-methoxyphenoxy]oxane-2-carboxylate

> <PUBCHEM_IUPAC_NAME>
sodium (2S,3S,4S,5R,6S)-3,4,5-trihydroxy-6-[4-[(5S)-5-hydroxy-3-oxodecyl]-2-methoxyphenoxy]oxane-2-carboxylate

> <PUBCHEM_IUPAC_SYSTEMATIC_NAME>
sodium (2S,3S,4S,5R,6S)-6-[2-methoxy-4-[(5S)-5-oxidanyl-3-oxidanylidene-decyl]phenoxy]-3,4,5-tris(oxidanyl)oxane-2-carboxylate

> <PUBCHEM_IUPAC_TRADITIONAL_NAME>
sodium (2S,3S,4S,5R,6S)-3,4,5-trihydroxy-6-[4-[(5S)-5-hydroxy-3-keto-decyl]-2-methoxy-phenoxy]tetrahydropyran-2-carboxylate

> <PUBCHEM_IUPAC_INCHI>
InChI=1S/C23H34O10.Na/c1-3-4-5-6-14(24)12-15(25)9-7-13-8-10-16(17(11-13)31-2)32-23-20(28)18(26)19(27)21(33-23)22(29)30;/h8,10-11,14,18-21,23-24,26-28H,3-7,9,12H2,1-2H3,(H,29,30);/q;+1/p-1/t14-,18-,19-,20+,21-,23+;/m0./s1

> <PUBCHEM_IUPAC_INCHIKEY>
YRENZCDLBVQSJG-CRAPYWCVSA-M

> <PUBCHEM_EXACT_MASS>
492.19714153

> <PUBCHEM_MOLECULAR_FORMULA>
C23H33NaO10

> <PUBCHEM_MOLECULAR_WEIGHT>
492.5

> <PUBCHEM_SMILES>
CCCCC[C@@H](CC(=O)CCC1=CC(=C(C=C1)O[C@H]2[C@@H]([C@H]([C@@H]([C@H](O2)C(=O)[O-])O)O)O)OC)O.[Na+]

> <PUBCHEM_CONNECTIVITY_SMILES>
CCCCCC(CC(=O)CCC1=CC(=C(C=C1)OC2C(C(C(C(O2)C(=O)[O-])O)O)O)OC)O.[Na+]

> <PUBCHEM_CACTVS_TPSA>
166

> <PUBCHEM_MONOISOTOPIC_WEIGHT>
492.19714153

> <PUBCHEM_TOTAL_CHARGE>
0

> <PUBCHEM_HEAVY_ATOM_COUNT>
34

> <PUBCHEM_ATOM_DEF_STEREO_COUNT>
6

> <PUBCHEM_ATOM_UDEF_STEREO_COUNT>
0

> <PUBCHEM_BOND_DEF_STEREO_COUNT>
0

> <PUBCHEM_BOND_UDEF_STEREO_COUNT>
0

> <PUBCHEM_ISOTOPIC_ATOM_COUNT>
0

> <PUBCHEM_COMPONENT_COUNT>
2

> <PUBCHEM_CACTVS_TAUTO_COUNT>
-1

> <PUBCHEM_NONSTANDARDBOND>
1  7  7

> <PUBCHEM_COORDINATE_TYPE>
1
5
255

> <PUBCHEM_BONDANNOTATIONS>
15  17  5
20  27  8
20  29  8
26  30  8
26  32  8
27  30  8
29  32  8
16  3  5
12  4  5
13  5  6
14  6  6
18  9  5

$$$$
