15801061
  -OEChem-01202622382D

 49 51  0     1  0  0  0  0  0999 V2000
    6.3507    0.8166    0.0000 O   0  0  0  0  0  0  0  0  0  0  0  0
    7.6379    0.0735    0.0000 O   0  0  0  0  0  0  0  0  0  0  0  0
    8.4676   -0.4058    0.0000 O   0  0  0  0  0  0  0  0  0  0  0  0
    4.9857    2.5488    0.0000 O   0  0  0  0  0  0  0  0  0  0  0  0
    2.7526   -1.5405    0.0000 O   0  0  0  0  0  0  0  0  0  0  0  0
    5.8507   -0.7222    0.0000 C   0  0  2  0  0  0  0  0  0  0  0  0
    6.7167   -2.2222    0.0000 C   0  0  0  0  0  0  0  0  0  0  0  0
    6.7167   -1.2222    0.0000 C   0  0  2  0  0  0  0  0  0  0  0  0
    4.9847   -1.2222    0.0000 C   0  0  0  0  0  0  0  0  0  0  0  0
    5.8507   -2.7222    0.0000 C   0  0  0  0  0  0  0  0  0  0  0  0
    4.9847   -2.2222    0.0000 C   0  0  0  0  0  0  0  0  0  0  0  0
    5.0417   -0.1344    0.0000 C   0  0  0  0  0  0  0  0  0  0  0  0
    6.6597   -0.1344    0.0000 C   0  0  0  0  0  0  0  0  0  0  0  0
    7.2167   -3.0882    0.0000 C   0  0  0  0  0  0  0  0  0  0  0  0
    7.7167   -2.2222    0.0000 C   0  0  0  0  0  0  0  0  0  0  0  0
    7.7015   -1.0486    0.0000 C   0  0  0  0  0  0  0  0  0  0  0  0
    5.3507    0.8166    0.0000 C   0  0  0  0  0  0  0  0  0  0  0  0
    4.0263   -0.3667    0.0000 C   0  0  0  0  0  0  0  0  0  0  0  0
    4.6657    1.6014    0.0000 C   0  0  0  0  0  0  0  0  0  0  0  0
    3.6452    1.3927    0.0000 C   0  0  0  0  0  0  0  0  0  0  0  0
    3.3233    0.4020    0.0000 C   0  0  0  0  0  0  0  0  0  0  0  0
    2.9789    2.1384    0.0000 C   0  0  0  0  0  0  0  0  0  0  0  0
    3.7283   -1.3212    0.0000 C   0  0  0  0  0  0  0  0  0  0  0  0
    2.0000    1.9342    0.0000 C   0  0  0  0  0  0  0  0  0  0  0  0
    3.2916    3.0882    0.0000 C   0  0  0  0  0  0  0  0  0  0  0  0
    6.8244   -0.6116    0.0000 H   0  0  0  0  0  0  0  0  0  0  0  0
    4.7726   -0.6396    0.0000 H   0  0  0  0  0  0  0  0  0  0  0  0
    4.3741   -1.3299    0.0000 H   0  0  0  0  0  0  0  0  0  0  0  0
    5.4522   -3.1972    0.0000 H   0  0  0  0  0  0  0  0  0  0  0  0
    6.2492   -3.1972    0.0000 H   0  0  0  0  0  0  0  0  0  0  0  0
    4.3741   -2.1146    0.0000 H   0  0  0  0  0  0  0  0  0  0  0  0
    4.7726   -2.8048    0.0000 H   0  0  0  0  0  0  0  0  0  0  0  0
    6.6798   -3.3982    0.0000 H   0  0  0  0  0  0  0  0  0  0  0  0
    7.5267   -3.6252    0.0000 H   0  0  0  0  0  0  0  0  0  0  0  0
    7.7536   -2.7782    0.0000 H   0  0  0  0  0  0  0  0  0  0  0  0
    7.7167   -2.8422    0.0000 H   0  0  0  0  0  0  0  0  0  0  0  0
    8.3367   -2.2222    0.0000 H   0  0  0  0  0  0  0  0  0  0  0  0
    7.7167   -1.6022    0.0000 H   0  0  0  0  0  0  0  0  0  0  0  0
    8.1000   -1.5235    0.0000 H   0  0  0  0  0  0  0  0  0  0  0  0
    2.7174    0.2708    0.0000 H   0  0  0  0  0  0  0  0  0  0  0  0
    2.5659    2.6007    0.0000 H   0  0  0  0  0  0  0  0  0  0  0  0
    4.1484   -1.7772    0.0000 H   0  0  0  0  0  0  0  0  0  0  0  0
    5.5936    2.6707    0.0000 H   0  0  0  0  0  0  0  0  0  0  0  0
    1.8734    2.5412    0.0000 H   0  0  0  0  0  0  0  0  0  0  0  0
    1.3931    1.8077    0.0000 H   0  0  0  0  0  0  0  0  0  0  0  0
    2.1266    1.3273    0.0000 H   0  0  0  0  0  0  0  0  0  0  0  0
    3.8805    2.8944    0.0000 H   0  0  0  0  0  0  0  0  0  0  0  0
    3.4855    3.6772    0.0000 H   0  0  0  0  0  0  0  0  0  0  0  0
    2.7027    3.2821    0.0000 H   0  0  0  0  0  0  0  0  0  0  0  0
  1 13  1  0  0  0  0
  1 17  1  0  0  0  0
  2 13  2  0  0  0  0
  3 16  2  0  0  0  0
  4 19  1  0  0  0  0
  4 43  1  0  0  0  0
  5 23  2  0  0  0  0
  6  8  1  0  0  0  0
  6  9  1  1  0  0  0
  6 12  1  0  0  0  0
  6 13  1  0  0  0  0
  7  8  1  0  0  0  0
  7 10  1  0  0  0  0
  7 14  1  0  0  0  0
  7 15  1  0  0  0  0
  8 16  1  1  0  0  0
  8 26  1  0  0  0  0
  9 11  1  0  0  0  0
  9 27  1  0  0  0  0
  9 28  1  0  0  0  0
 10 11  1  0  0  0  0
 10 29  1  0  0  0  0
 10 30  1  0  0  0  0
 11 31  1  0  0  0  0
 11 32  1  0  0  0  0
 12 17  2  0  0  0  0
 12 18  1  0  0  0  0
 14 33  1  0  0  0  0
 14 34  1  0  0  0  0
 14 35  1  0  0  0  0
 15 36  1  0  0  0  0
 15 37  1  0  0  0  0
 15 38  1  0  0  0  0
 16 39  1  0  0  0  0
 17 19  1  0  0  0  0
 18 21  2  0  0  0  0
 18 23  1  0  0  0  0
 19 20  2  0  0  0  0
 20 21  1  0  0  0  0
 20 22  1  0  0  0  0
 21 40  1  0  0  0  0
 22 24  1  0  0  0  0
 22 25  1  0  0  0  0
 22 41  1  0  0  0  0
 23 42  1  0  0  0  0
 24 44  1  0  0  0  0
 24 45  1  0  0  0  0
 24 46  1  0  0  0  0
 25 47  1  0  0  0  0
 25 48  1  0  0  0  0
 25 49  1  0  0  0  0
M  END
> <PUBCHEM_COMPOUND_CID>
15801061

> <PUBCHEM_COMPOUND_CANONICALIZED>
1

> <PUBCHEM_CACTVS_COMPLEXITY>
568

> <PUBCHEM_CACTVS_HBOND_ACCEPTOR>
5

> <PUBCHEM_CACTVS_HBOND_DONOR>
1

> <PUBCHEM_CACTVS_ROTATABLE_BOND>
3

> <PUBCHEM_CACTVS_SUBSKEYS>
AAADceB4OAAAAAAAAAAAAAAAAAAAASAAAAAwYAAAAAAAAEgBAAAAGgAACAAADwSgmAIyDoAABgCIAijSiAACCAAkIAAAiAEEiMgNJjKGNRqCeyOkwBELuYeL7vTP4AADAAAYQADAAAYAADCAAAAAAAAAAA==

> <PUBCHEM_IUPAC_OPENEYE_NAME>
(1'S,3R)-7-hydroxy-6-isopropyl-2',2'-dimethyl-2-oxo-spiro[benzofuran-3,6'-cyclohexane]-1',4-dicarbaldehyde

> <PUBCHEM_IUPAC_CAS_NAME>
(1'S,3R)-7-hydroxy-2',2'-dimethyl-2-oxo-6-propan-2-ylspiro[benzofuran-3,6'-cyclohexane]-1',4-dicarboxaldehyde

> <PUBCHEM_IUPAC_NAME_MARKUP>
(1&apos;<I>S</I>,3<I>R</I>)-7-hydroxy-2&apos;,2&apos;-dimethyl-2-oxo-6-propan-2-ylspiro[1-benzofuran-3,6&apos;-cyclohexane]-1&apos;,4-dicarbaldehyde

> <PUBCHEM_IUPAC_NAME>
(1'S,3R)-7-hydroxy-2',2'-dimethyl-2-oxo-6-propan-2-ylspiro[1-benzofuran-3,6'-cyclohexane]-1',4-dicarbaldehyde

> <PUBCHEM_IUPAC_SYSTEMATIC_NAME>
(1'S,3R)-2',2'-dimethyl-7-oxidanyl-2-oxidanylidene-6-propan-2-yl-spiro[1-benzofuran-3,6'-cyclohexane]-1',4-dicarbaldehyde

> <PUBCHEM_IUPAC_TRADITIONAL_NAME>
(1'S,3R)-7-hydroxy-6-isopropyl-2-keto-2',2'-dimethyl-spiro[coumaran-3,6'-cyclohexane]-1',4-dicarbaldehyde

> <PUBCHEM_IUPAC_INCHI>
InChI=1S/C20H24O5/c1-11(2)13-8-12(9-21)15-17(16(13)23)25-18(24)20(15)7-5-6-19(3,4)14(20)10-22/h8-11,14,23H,5-7H2,1-4H3/t14-,20+/m0/s1

> <PUBCHEM_IUPAC_INCHIKEY>
JBWRHBJFAVSAMJ-VBKZILBWSA-N

> <PUBCHEM_XLOGP3_AA>
3.3

> <PUBCHEM_EXACT_MASS>
344.16237386

> <PUBCHEM_MOLECULAR_FORMULA>
C20H24O5

> <PUBCHEM_MOLECULAR_WEIGHT>
344.4

> <PUBCHEM_SMILES>
CC(C)C1=C(C2=C(C(=C1)C=O)[C@]3(CCCC([C@@H]3C=O)(C)C)C(=O)O2)O

> <PUBCHEM_CONNECTIVITY_SMILES>
CC(C)C1=C(C2=C(C(=C1)C=O)C3(CCCC(C3C=O)(C)C)C(=O)O2)O

> <PUBCHEM_CACTVS_TPSA>
80.7

> <PUBCHEM_MONOISOTOPIC_WEIGHT>
344.16237386

> <PUBCHEM_TOTAL_CHARGE>
0

> <PUBCHEM_HEAVY_ATOM_COUNT>
25

> <PUBCHEM_ATOM_DEF_STEREO_COUNT>
2

> <PUBCHEM_ATOM_UDEF_STEREO_COUNT>
0

> <PUBCHEM_BOND_DEF_STEREO_COUNT>
0

> <PUBCHEM_BOND_UDEF_STEREO_COUNT>
0

> <PUBCHEM_ISOTOPIC_ATOM_COUNT>
0

> <PUBCHEM_COMPONENT_COUNT>
1

> <PUBCHEM_CACTVS_TAUTO_COUNT>
-1

> <PUBCHEM_COORDINATE_TYPE>
1
5
255

> <PUBCHEM_BONDANNOTATIONS>
12  17  8
12  18  8
17  19  8
18  21  8
19  20  8
20  21  8
6  9  5
8  16  5

$$$$
