11521428
  -OEChem-01202622372D

 32 33  0     1  0  0  0  0  0999 V2000
    6.6648    0.4041    0.0000 O   0  0  0  0  0  0  0  0  0  0  0  0
    2.5369    1.4041    0.0000 O   0  0  0  0  0  0  0  0  0  0  0  0
    4.2690    2.4041    0.0000 O   0  0  0  0  0  0  0  0  0  0  0  0
    6.3919    2.1594    0.0000 O   0  0  0  0  0  0  0  0  0  0  0  0
    3.4030    0.9041    0.0000 C   0  0  2  0  0  0  0  0  0  0  0  0
    4.2690    1.4041    0.0000 C   0  0  2  0  0  0  0  0  0  0  0  0
    3.4030   -0.0959    0.0000 C   0  0  0  0  0  0  0  0  0  0  0  0
    4.2690   -0.5959    0.0000 C   0  0  0  0  0  0  0  0  0  0  0  0
    5.1350   -0.0959    0.0000 C   0  0  0  0  0  0  0  0  0  0  0  0
    5.1350    0.9041    0.0000 C   0  0  0  0  0  0  0  0  0  0  0  0
    6.0812   -0.4006    0.0000 C   0  0  0  0  0  0  0  0  0  0  0  0
    6.0812    1.2088    0.0000 C   0  0  0  0  0  0  0  0  0  0  0  0
    6.3919   -1.3512    0.0000 C   0  0  0  0  0  0  0  0  0  0  0  0
    7.3704   -1.5574    0.0000 C   0  0  0  0  0  0  0  0  0  0  0  0
    7.6811   -2.5079    0.0000 C   0  0  0  0  0  0  0  0  0  0  0  0
    8.6596   -2.7141    0.0000 C   0  0  0  0  0  0  0  0  0  0  0  0
    3.4030    1.5241    0.0000 H   0  0  0  0  0  0  0  0  0  0  0  0
    4.8059    1.7141    0.0000 H   0  0  0  0  0  0  0  0  0  0  0  0
    2.7924    0.0118    0.0000 H   0  0  0  0  0  0  0  0  0  0  0  0
    3.1909   -0.6785    0.0000 H   0  0  0  0  0  0  0  0  0  0  0  0
    3.8705   -1.0708    0.0000 H   0  0  0  0  0  0  0  0  0  0  0  0
    4.6675   -1.0708    0.0000 H   0  0  0  0  0  0  0  0  0  0  0  0
    5.9778   -1.8126    0.0000 H   0  0  0  0  0  0  0  0  0  0  0  0
    2.0000    1.0941    0.0000 H   0  0  0  0  0  0  0  0  0  0  0  0
    3.7321    2.7141    0.0000 H   0  0  0  0  0  0  0  0  0  0  0  0
    7.9842   -1.4700    0.0000 H   0  0  0  0  0  0  0  0  0  0  0  0
    7.3910   -0.9377    0.0000 H   0  0  0  0  0  0  0  0  0  0  0  0
    7.0673   -2.5952    0.0000 H   0  0  0  0  0  0  0  0  0  0  0  0
    7.6605   -3.1276    0.0000 H   0  0  0  0  0  0  0  0  0  0  0  0
    8.5317   -3.3208    0.0000 H   0  0  0  0  0  0  0  0  0  0  0  0
    9.2662   -2.8420    0.0000 H   0  0  0  0  0  0  0  0  0  0  0  0
    8.7874   -2.1074    0.0000 H   0  0  0  0  0  0  0  0  0  0  0  0
  1 11  1  0  0  0  0
  1 12  1  0  0  0  0
  5  2  1  6  0  0  0
  2 24  1  0  0  0  0
  6  3  1  1  0  0  0
  3 25  1  0  0  0  0
  4 12  2  0  0  0  0
  5  6  1  0  0  0  0
  5  7  1  0  0  0  0
  5 17  1  0  0  0  0
  6 10  1  0  0  0  0
  6 18  1  0  0  0  0
  7  8  1  0  0  0  0
  7 19  1  0  0  0  0
  7 20  1  0  0  0  0
  8  9  1  0  0  0  0
  8 21  1  0  0  0  0
  8 22  1  0  0  0  0
  9 10  2  0  0  0  0
  9 11  1  0  0  0  0
 10 12  1  0  0  0  0
 11 13  2  0  0  0  0
 13 14  1  0  0  0  0
 13 23  1  0  0  0  0
 14 15  1  0  0  0  0
 14 26  1  0  0  0  0
 14 27  1  0  0  0  0
 15 16  1  0  0  0  0
 15 28  1  0  0  0  0
 15 29  1  0  0  0  0
 16 30  1  0  0  0  0
 16 31  1  0  0  0  0
 16 32  1  0  0  0  0
M  END
> <PUBCHEM_COMPOUND_CID>
11521428

> <PUBCHEM_COMPOUND_CANONICALIZED>
1

> <PUBCHEM_CACTVS_COMPLEXITY>
367

> <PUBCHEM_CACTVS_HBOND_ACCEPTOR>
4

> <PUBCHEM_CACTVS_HBOND_DONOR>
2

> <PUBCHEM_CACTVS_ROTATABLE_BOND>
2

> <PUBCHEM_CACTVS_SUBSKEYS>
AAADceBwOAAAAAAAAAAAAAAAAAAAAQAAAAAgAAAAAAAAAEgAAAAAGgAACAAADBSggAICCAAABgCIAiDSCAAACAAgIAAACAEAAEgJFBYAIAACUAAF4AAJsQPK6KyAAAAAAAAAAAAAAAAAAAAAAAAAAAAAAA==

> <PUBCHEM_IUPAC_OPENEYE_NAME>
(3Z,6S,7S)-3-butylidene-6,7-dihydroxy-4,5,6,7-tetrahydroisobenzofuran-1-one

> <PUBCHEM_IUPAC_CAS_NAME>
(3Z,6S,7S)-3-butylidene-6,7-dihydroxy-4,5,6,7-tetrahydroisobenzofuran-1-one

> <PUBCHEM_IUPAC_NAME_MARKUP>
(3<I>Z</I>,6<I>S</I>,7<I>S</I>)-3-butylidene-6,7-dihydroxy-4,5,6,7-tetrahydro-2-benzofuran-1-one

> <PUBCHEM_IUPAC_NAME>
(3Z,6S,7S)-3-butylidene-6,7-dihydroxy-4,5,6,7-tetrahydro-2-benzofuran-1-one

> <PUBCHEM_IUPAC_SYSTEMATIC_NAME>
(3Z,6S,7S)-3-butylidene-6,7-bis(oxidanyl)-4,5,6,7-tetrahydro-2-benzofuran-1-one

> <PUBCHEM_IUPAC_TRADITIONAL_NAME>
(3Z,6S,7S)-3-butylidene-6,7-dihydroxy-4,5,6,7-tetrahydroisobenzofuran-1-one

> <PUBCHEM_IUPAC_INCHI>
InChI=1S/C12H16O4/c1-2-3-4-9-7-5-6-8(13)11(14)10(7)12(15)16-9/h4,8,11,13-14H,2-3,5-6H2,1H3/b9-4-/t8-,11+/m0/s1

> <PUBCHEM_IUPAC_INCHIKEY>
DQNGMIQSXNGHOA-JXQVETIVSA-N

> <PUBCHEM_XLOGP3_AA>
0.5

> <PUBCHEM_EXACT_MASS>
224.10485899

> <PUBCHEM_MOLECULAR_FORMULA>
C12H16O4

> <PUBCHEM_MOLECULAR_WEIGHT>
224.25

> <PUBCHEM_SMILES>
CCC/C=C\1/C2=C([C@@H]([C@H](CC2)O)O)C(=O)O1

> <PUBCHEM_CONNECTIVITY_SMILES>
CCCC=C1C2=C(C(C(CC2)O)O)C(=O)O1

> <PUBCHEM_CACTVS_TPSA>
66.8

> <PUBCHEM_MONOISOTOPIC_WEIGHT>
224.10485899

> <PUBCHEM_TOTAL_CHARGE>
0

> <PUBCHEM_HEAVY_ATOM_COUNT>
16

> <PUBCHEM_ATOM_DEF_STEREO_COUNT>
2

> <PUBCHEM_ATOM_UDEF_STEREO_COUNT>
0

> <PUBCHEM_BOND_DEF_STEREO_COUNT>
1

> <PUBCHEM_BOND_UDEF_STEREO_COUNT>
0

> <PUBCHEM_ISOTOPIC_ATOM_COUNT>
0

> <PUBCHEM_COMPONENT_COUNT>
1

> <PUBCHEM_CACTVS_TAUTO_COUNT>
-1

> <PUBCHEM_COORDINATE_TYPE>
1
5
255

> <PUBCHEM_BONDANNOTATIONS>
5  2  6
6  3  5

$$$$
