12452972
  -OEChem-01202622372D

 36 35  0     1  0  0  0  0  0999 V2000
    2.6340   -1.7500    0.0000 O   0  0  0  0  0  0  0  0  0  0  0  0
    4.3660   -0.7500    0.0000 C   0  0  3  0  0  0  0  0  0  0  0  0
    3.5000   -1.2500    0.0000 C   0  0  3  0  0  0  0  0  0  0  0  0
    4.3660    0.2500    0.0000 C   0  0  0  0  0  0  0  0  0  0  0  0
    5.2321   -1.2500    0.0000 C   0  0  0  0  0  0  0  0  0  0  0  0
    4.0000   -2.1160    0.0000 C   0  0  0  0  0  0  0  0  0  0  0  0
    3.0000   -0.3840    0.0000 C   0  0  0  0  0  0  0  0  0  0  0  0
    5.2321    0.7500    0.0000 C   0  0  0  0  0  0  0  0  0  0  0  0
    6.0981   -0.7500    0.0000 C   0  0  0  0  0  0  0  0  0  0  0  0
    5.2321    1.7500    0.0000 C   0  0  0  0  0  0  0  0  0  0  0  0
    5.2321   -2.2500    0.0000 C   0  0  0  0  0  0  0  0  0  0  0  0
    2.0000   -0.3840    0.0000 C   0  0  0  0  0  0  0  0  0  0  0  0
    6.0981    2.2500    0.0000 C   0  0  0  0  0  0  0  0  0  0  0  0
    4.3660    2.2500    0.0000 C   0  0  0  0  0  0  0  0  0  0  0  0
    4.9030   -0.4400    0.0000 H   0  0  0  0  0  0  0  0  0  0  0  0
    4.1540    0.8326    0.0000 H   0  0  0  0  0  0  0  0  0  0  0  0
    3.7554    0.1423    0.0000 H   0  0  0  0  0  0  0  0  0  0  0  0
    3.4631   -2.4260    0.0000 H   0  0  0  0  0  0  0  0  0  0  0  0
    4.3100   -2.6530    0.0000 H   0  0  0  0  0  0  0  0  0  0  0  0
    4.5369   -1.8060    0.0000 H   0  0  0  0  0  0  0  0  0  0  0  0
    3.3100    0.1530    0.0000 H   0  0  0  0  0  0  0  0  0  0  0  0
    5.7690    0.4400    0.0000 H   0  0  0  0  0  0  0  0  0  0  0  0
    6.4081   -1.2869    0.0000 H   0  0  0  0  0  0  0  0  0  0  0  0
    6.6350   -0.4400    0.0000 H   0  0  0  0  0  0  0  0  0  0  0  0
    5.7881   -0.2131    0.0000 H   0  0  0  0  0  0  0  0  0  0  0  0
    2.0970   -1.4400    0.0000 H   0  0  0  0  0  0  0  0  0  0  0  0
    4.6951   -2.5600    0.0000 H   0  0  0  0  0  0  0  0  0  0  0  0
    5.7690   -2.5600    0.0000 H   0  0  0  0  0  0  0  0  0  0  0  0
    1.6900    0.1530    0.0000 H   0  0  0  0  0  0  0  0  0  0  0  0
    1.6900   -0.9209    0.0000 H   0  0  0  0  0  0  0  0  0  0  0  0
    6.4081    1.7131    0.0000 H   0  0  0  0  0  0  0  0  0  0  0  0
    6.6350    2.5600    0.0000 H   0  0  0  0  0  0  0  0  0  0  0  0
    5.7881    2.7869    0.0000 H   0  0  0  0  0  0  0  0  0  0  0  0
    4.6760    2.7869    0.0000 H   0  0  0  0  0  0  0  0  0  0  0  0
    3.8291    2.5600    0.0000 H   0  0  0  0  0  0  0  0  0  0  0  0
    4.0560    1.7131    0.0000 H   0  0  0  0  0  0  0  0  0  0  0  0
  1  3  1  0  0  0  0
  1 26  1  0  0  0  0
  2  3  1  0  0  0  0
  2  4  1  0  0  0  0
  2  5  1  0  0  0  0
  2 15  1  0  0  0  0
  3  6  1  0  0  0  0
  3  7  1  0  0  0  0
  4  8  1  0  0  0  0
  4 16  1  0  0  0  0
  4 17  1  0  0  0  0
  5  9  1  0  0  0  0
  5 11  2  0  0  0  0
  6 18  1  0  0  0  0
  6 19  1  0  0  0  0
  6 20  1  0  0  0  0
  7 12  2  0  0  0  0
  7 21  1  0  0  0  0
  8 10  2  0  0  0  0
  8 22  1  0  0  0  0
  9 23  1  0  0  0  0
  9 24  1  0  0  0  0
  9 25  1  0  0  0  0
 10 13  1  0  0  0  0
 10 14  1  0  0  0  0
 11 27  1  0  0  0  0
 11 28  1  0  0  0  0
 12 29  1  0  0  0  0
 12 30  1  0  0  0  0
 13 31  1  0  0  0  0
 13 32  1  0  0  0  0
 13 33  1  0  0  0  0
 14 34  1  0  0  0  0
 14 35  1  0  0  0  0
 14 36  1  0  0  0  0
M  END
> <PUBCHEM_COMPOUND_CID>
12452972

> <PUBCHEM_COMPOUND_CANONICALIZED>
1

> <PUBCHEM_CACTVS_COMPLEXITY>
246

> <PUBCHEM_CACTVS_HBOND_ACCEPTOR>
1

> <PUBCHEM_CACTVS_HBOND_DONOR>
1

> <PUBCHEM_CACTVS_ROTATABLE_BOND>
5

> <PUBCHEM_CACTVS_SUBSKEYS>
AAADceBwIAAAAAAAAAAAAAAAAAAAAAAAAAAAAAAAAAAAAAAAAAAAGgAACAAADUSAgAACAAAAAgCAAiBCAAAAAAAgAAAICAAAAAgABAIAAQAAQAAEwAAIEAIAAAAOgAAAAAAAAAAAAAAAAAAAAAAAAAAAAA==

> <PUBCHEM_IUPAC_OPENEYE_NAME>
4-isopropenyl-3,7-dimethyl-octa-1,6-dien-3-ol

> <PUBCHEM_IUPAC_CAS_NAME>
3,7-dimethyl-4-(1-methylethenyl)-3-octa-1,6-dienol

> <PUBCHEM_IUPAC_NAME_MARKUP>
3,7-dimethyl-4-prop-1-en-2-ylocta-1,6-dien-3-ol

> <PUBCHEM_IUPAC_NAME>
3,7-dimethyl-4-prop-1-en-2-ylocta-1,6-dien-3-ol

> <PUBCHEM_IUPAC_SYSTEMATIC_NAME>
3,7-dimethyl-4-prop-1-en-2-yl-octa-1,6-dien-3-ol

> <PUBCHEM_IUPAC_TRADITIONAL_NAME>
4-isopropenyl-3,7-dimethyl-octa-1,6-dien-3-ol

> <PUBCHEM_IUPAC_INCHI>
InChI=1S/C13H22O/c1-7-13(6,14)12(11(4)5)9-8-10(2)3/h7-8,12,14H,1,4,9H2,2-3,5-6H3

> <PUBCHEM_IUPAC_INCHIKEY>
XASQOXUVAJNPPN-UHFFFAOYSA-N

> <PUBCHEM_XLOGP3_AA>
3.9

> <PUBCHEM_EXACT_MASS>
194.167065321

> <PUBCHEM_MOLECULAR_FORMULA>
C13H22O

> <PUBCHEM_MOLECULAR_WEIGHT>
194.31

> <PUBCHEM_SMILES>
CC(=CCC(C(=C)C)C(C)(C=C)O)C

> <PUBCHEM_CONNECTIVITY_SMILES>
CC(=CCC(C(=C)C)C(C)(C=C)O)C

> <PUBCHEM_CACTVS_TPSA>
20.2

> <PUBCHEM_MONOISOTOPIC_WEIGHT>
194.167065321

> <PUBCHEM_TOTAL_CHARGE>
0

> <PUBCHEM_HEAVY_ATOM_COUNT>
14

> <PUBCHEM_ATOM_DEF_STEREO_COUNT>
0

> <PUBCHEM_ATOM_UDEF_STEREO_COUNT>
2

> <PUBCHEM_BOND_DEF_STEREO_COUNT>
0

> <PUBCHEM_BOND_UDEF_STEREO_COUNT>
0

> <PUBCHEM_ISOTOPIC_ATOM_COUNT>
0

> <PUBCHEM_COMPONENT_COUNT>
1

> <PUBCHEM_CACTVS_TAUTO_COUNT>
-1

> <PUBCHEM_COORDINATE_TYPE>
1
5
255

> <PUBCHEM_BONDANNOTATIONS>
3  1  3
2  4  3

$$$$
