7015685
  -OEChem-01202622352D

 40 39  0     1  0  0  0  0  0999 V2000
    7.1962    0.6550    0.0000 O   0  0  0  0  0  0  0  0  0  0  0  0
    2.8660   -4.8450    0.0000 O   0  0  0  0  0  0  0  0  0  0  0  0
    2.0000   -3.3450    0.0000 O   0  0  0  0  0  0  0  0  0  0  0  0
    8.9282    3.6550    0.0000 O   0  0  0  0  0  0  0  0  0  0  0  0
    8.0622    5.1550    0.0000 O   0  0  0  0  0  0  0  0  0  0  0  0
    5.4641    0.6550    0.0000 N   0  0  0  0  0  0  0  0  0  0  0  0
    4.5981   -3.8450    0.0000 N   0  0  0  0  0  0  0  0  0  0  0  0
    6.3301    4.1550    0.0000 N   0  0  0  0  0  0  0  0  0  0  0  0
    4.5981   -1.8450    0.0000 C   0  0  0  0  0  0  0  0  0  0  0  0
    4.5981   -0.8450    0.0000 C   0  0  0  0  0  0  0  0  0  0  0  0
    3.7320   -2.3450    0.0000 C   0  0  0  0  0  0  0  0  0  0  0  0
    5.4641   -0.3450    0.0000 C   0  0  0  0  0  0  0  0  0  0  0  0
    3.7320   -3.3450    0.0000 C   0  0  1  0  0  0  0  0  0  0  0  0
    7.1962    2.6550    0.0000 C   0  0  0  0  0  0  0  0  0  0  0  0
    6.3301    2.1550    0.0000 C   0  0  0  0  0  0  0  0  0  0  0  0
    7.1962    3.6550    0.0000 C   0  0  1  0  0  0  0  0  0  0  0  0
    6.3301    1.1550    0.0000 C   0  0  0  0  0  0  0  0  0  0  0  0
    2.8660   -3.8450    0.0000 C   0  0  0  0  0  0  0  0  0  0  0  0
    8.0622    4.1550    0.0000 C   0  0  0  0  0  0  0  0  0  0  0  0
    4.8101   -2.4276    0.0000 H   0  0  0  0  0  0  0  0  0  0  0  0
    5.2087   -1.7373    0.0000 H   0  0  0  0  0  0  0  0  0  0  0  0
    4.3860   -0.2624    0.0000 H   0  0  0  0  0  0  0  0  0  0  0  0
    3.9875   -0.9527    0.0000 H   0  0  0  0  0  0  0  0  0  0  0  0
    3.5200   -1.7624    0.0000 H   0  0  0  0  0  0  0  0  0  0  0  0
    3.1215   -2.4527    0.0000 H   0  0  0  0  0  0  0  0  0  0  0  0
    5.6762   -0.9276    0.0000 H   0  0  0  0  0  0  0  0  0  0  0  0
    6.0747   -0.2373    0.0000 H   0  0  0  0  0  0  0  0  0  0  0  0
    3.7320   -3.9650    0.0000 H   0  0  0  0  0  0  0  0  0  0  0  0
    7.4082    2.0724    0.0000 H   0  0  0  0  0  0  0  0  0  0  0  0
    7.8067    2.7627    0.0000 H   0  0  0  0  0  0  0  0  0  0  0  0
    6.1181    2.7376    0.0000 H   0  0  0  0  0  0  0  0  0  0  0  0
    5.7196    2.0473    0.0000 H   0  0  0  0  0  0  0  0  0  0  0  0
    4.9272    0.9650    0.0000 H   0  0  0  0  0  0  0  0  0  0  0  0
    6.6592    3.3450    0.0000 H   0  0  0  0  0  0  0  0  0  0  0  0
    4.5981   -4.4650    0.0000 H   0  0  0  0  0  0  0  0  0  0  0  0
    5.1350   -3.5350    0.0000 H   0  0  0  0  0  0  0  0  0  0  0  0
    5.7932    3.8450    0.0000 H   0  0  0  0  0  0  0  0  0  0  0  0
    6.3301    4.7750    0.0000 H   0  0  0  0  0  0  0  0  0  0  0  0
    2.3291   -5.1550    0.0000 H   0  0  0  0  0  0  0  0  0  0  0  0
    9.4651    3.9650    0.0000 H   0  0  0  0  0  0  0  0  0  0  0  0
  1 17  2  0  0  0  0
  2 18  1  0  0  0  0
  2 39  1  0  0  0  0
  3 18  2  0  0  0  0
  4 19  1  0  0  0  0
  4 40  1  0  0  0  0
  5 19  2  0  0  0  0
  6 12  1  0  0  0  0
  6 17  1  0  0  0  0
  6 33  1  0  0  0  0
 13  7  1  6  0  0  0
  7 35  1  0  0  0  0
  7 36  1  0  0  0  0
 16  8  1  6  0  0  0
  8 37  1  0  0  0  0
  8 38  1  0  0  0  0
  9 10  1  0  0  0  0
  9 11  1  0  0  0  0
  9 20  1  0  0  0  0
  9 21  1  0  0  0  0
 10 12  1  0  0  0  0
 10 22  1  0  0  0  0
 10 23  1  0  0  0  0
 11 13  1  0  0  0  0
 11 24  1  0  0  0  0
 11 25  1  0  0  0  0
 12 26  1  0  0  0  0
 12 27  1  0  0  0  0
 13 18  1  0  0  0  0
 13 28  1  0  0  0  0
 14 15  1  0  0  0  0
 14 16  1  0  0  0  0
 14 29  1  0  0  0  0
 14 30  1  0  0  0  0
 15 17  1  0  0  0  0
 15 31  1  0  0  0  0
 15 32  1  0  0  0  0
 16 19  1  0  0  0  0
 16 34  1  0  0  0  0
M  END
> <PUBCHEM_COMPOUND_CID>
7015685

> <PUBCHEM_COMPOUND_CANONICALIZED>
1

> <PUBCHEM_CACTVS_COMPLEXITY>
321

> <PUBCHEM_CACTVS_HBOND_ACCEPTOR>
7

> <PUBCHEM_CACTVS_HBOND_DONOR>
5

> <PUBCHEM_CACTVS_ROTATABLE_BOND>
10

> <PUBCHEM_CACTVS_SUBSKEYS>
AAADceBzOAAAAAAAAAAAAAAAAAAAAAAAAAAAAAAAAAAAAAAAAAAAHgAQCAAACCjBgAQACALAAgAIAAGQGAAAAAAAAAAAAIGIAAACABIAgAAEQAAEFgCAAAGcXwIAAAAAAAAAAAAAAAAAAAAAAAAAAAAAAA==

> <PUBCHEM_IUPAC_OPENEYE_NAME>
(2S)-2-amino-6-[[(4S)-4-amino-4-carboxy-butanoyl]amino]hexanoic acid

> <PUBCHEM_IUPAC_CAS_NAME>
(2S)-2-amino-6-[[(4S)-4-amino-4-carboxy-1-oxobutyl]amino]hexanoic acid

> <PUBCHEM_IUPAC_NAME_MARKUP>
(2<I>S</I>)-2-amino-6-[[(4<I>S</I>)-4-amino-4-carboxybutanoyl]amino]hexanoic acid

> <PUBCHEM_IUPAC_NAME>
(2S)-2-amino-6-[[(4S)-4-amino-4-carboxybutanoyl]amino]hexanoic acid

> <PUBCHEM_IUPAC_SYSTEMATIC_NAME>
(2S)-2-azanyl-6-[[(4S)-4-azanyl-5-oxidanyl-5-oxidanylidene-pentanoyl]amino]hexanoic acid

> <PUBCHEM_IUPAC_TRADITIONAL_NAME>
(2S)-2-amino-6-[[(4S)-4-amino-4-carboxy-butanoyl]amino]hexanoic acid

> <PUBCHEM_IUPAC_INCHI>
InChI=1S/C11H21N3O5/c12-7(10(16)17)3-1-2-6-14-9(15)5-4-8(13)11(18)19/h7-8H,1-6,12-13H2,(H,14,15)(H,16,17)(H,18,19)/t7-,8-/m0/s1

> <PUBCHEM_IUPAC_INCHIKEY>
JPKNLFVGUZRHOB-YUMQZZPRSA-N

> <PUBCHEM_XLOGP3_AA>
-6.3

> <PUBCHEM_EXACT_MASS>
275.14812078

> <PUBCHEM_MOLECULAR_FORMULA>
C11H21N3O5

> <PUBCHEM_MOLECULAR_WEIGHT>
275.30

> <PUBCHEM_SMILES>
C(CCNC(=O)CC[C@@H](C(=O)O)N)C[C@@H](C(=O)O)N

> <PUBCHEM_CONNECTIVITY_SMILES>
C(CCNC(=O)CCC(C(=O)O)N)CC(C(=O)O)N

> <PUBCHEM_CACTVS_TPSA>
156

> <PUBCHEM_MONOISOTOPIC_WEIGHT>
275.14812078

> <PUBCHEM_TOTAL_CHARGE>
0

> <PUBCHEM_HEAVY_ATOM_COUNT>
19

> <PUBCHEM_ATOM_DEF_STEREO_COUNT>
2

> <PUBCHEM_ATOM_UDEF_STEREO_COUNT>
0

> <PUBCHEM_BOND_DEF_STEREO_COUNT>
0

> <PUBCHEM_BOND_UDEF_STEREO_COUNT>
0

> <PUBCHEM_ISOTOPIC_ATOM_COUNT>
0

> <PUBCHEM_COMPONENT_COUNT>
1

> <PUBCHEM_CACTVS_TAUTO_COUNT>
-1

> <PUBCHEM_COORDINATE_TYPE>
1
5
255

> <PUBCHEM_BONDANNOTATIONS>
13  7  6
16  8  6

$$$$
