5458880
  -OEChem-01202622332D

 29 30  0     0  0  0  0  0  0999 V2000
    6.9473    1.3047    0.0000 O   0  0  0  0  0  0  0  0  0  0  0  0
    6.9473   -0.3047    0.0000 O   0  0  0  0  0  0  0  0  0  0  0  0
    5.1350    2.5000    0.0000 O   0  0  0  0  0  0  0  0  0  0  0  0
    3.4030    1.5000    0.0000 O   0  0  0  0  0  0  0  0  0  0  0  0
    2.5369   -3.0000    0.0000 O   0  0  0  0  0  0  0  0  0  0  0  0
    6.0010    1.0000    0.0000 C   0  0  0  0  0  0  0  0  0  0  0  0
    6.0010    0.0000    0.0000 C   0  0  0  0  0  0  0  0  0  0  0  0
    5.1350    1.5000    0.0000 C   0  0  0  0  0  0  0  0  0  0  0  0
    4.2690    0.0000    0.0000 C   0  0  0  0  0  0  0  0  0  0  0  0
    4.2690    1.0000    0.0000 C   0  0  0  0  0  0  0  0  0  0  0  0
    5.1350   -0.5000    0.0000 C   0  0  0  0  0  0  0  0  0  0  0  0
    7.5309    0.5000    0.0000 C   0  0  0  0  0  0  0  0  0  0  0  0
    3.4030   -0.5000    0.0000 C   0  0  0  0  0  0  0  0  0  0  0  0
    6.0010    3.0000    0.0000 C   0  0  0  0  0  0  0  0  0  0  0  0
    3.4030   -1.5000    0.0000 C   0  0  0  0  0  0  0  0  0  0  0  0
    3.4030    2.5000    0.0000 C   0  0  0  0  0  0  0  0  0  0  0  0
    2.5369   -2.0000    0.0000 C   0  0  0  0  0  0  0  0  0  0  0  0
    5.1350   -1.1200    0.0000 H   0  0  0  0  0  0  0  0  0  0  0  0
    7.9917    0.0853    0.0000 H   0  0  0  0  0  0  0  0  0  0  0  0
    7.9917    0.9147    0.0000 H   0  0  0  0  0  0  0  0  0  0  0  0
    2.8660   -0.1900    0.0000 H   0  0  0  0  0  0  0  0  0  0  0  0
    6.3110    2.4631    0.0000 H   0  0  0  0  0  0  0  0  0  0  0  0
    6.5380    3.3100    0.0000 H   0  0  0  0  0  0  0  0  0  0  0  0
    5.6910    3.5369    0.0000 H   0  0  0  0  0  0  0  0  0  0  0  0
    3.9399   -1.8100    0.0000 H   0  0  0  0  0  0  0  0  0  0  0  0
    4.0230    2.5000    0.0000 H   0  0  0  0  0  0  0  0  0  0  0  0
    3.4030    3.1200    0.0000 H   0  0  0  0  0  0  0  0  0  0  0  0
    2.7830    2.5000    0.0000 H   0  0  0  0  0  0  0  0  0  0  0  0
    2.0000   -1.6900    0.0000 H   0  0  0  0  0  0  0  0  0  0  0  0
  1  6  1  0  0  0  0
  1 12  1  0  0  0  0
  2  7  1  0  0  0  0
  2 12  1  0  0  0  0
  3  8  1  0  0  0  0
  3 14  1  0  0  0  0
  4 10  1  0  0  0  0
  4 16  1  0  0  0  0
  5 17  2  0  0  0  0
  6  7  2  0  0  0  0
  6  8  1  0  0  0  0
  7 11  1  0  0  0  0
  8 10  2  0  0  0  0
  9 10  1  0  0  0  0
  9 11  2  0  0  0  0
  9 13  1  0  0  0  0
 11 18  1  0  0  0  0
 12 19  1  0  0  0  0
 12 20  1  0  0  0  0
 13 15  2  0  0  0  0
 13 21  1  0  0  0  0
 14 22  1  0  0  0  0
 14 23  1  0  0  0  0
 14 24  1  0  0  0  0
 15 17  1  0  0  0  0
 15 25  1  0  0  0  0
 16 26  1  0  0  0  0
 16 27  1  0  0  0  0
 16 28  1  0  0  0  0
 17 29  1  0  0  0  0
M  END
> <PUBCHEM_COMPOUND_CID>
5458880

> <PUBCHEM_COMPOUND_CANONICALIZED>
1

> <PUBCHEM_CACTVS_COMPLEXITY>
291

> <PUBCHEM_CACTVS_HBOND_ACCEPTOR>
5

> <PUBCHEM_CACTVS_HBOND_DONOR>
0

> <PUBCHEM_CACTVS_ROTATABLE_BOND>
4

> <PUBCHEM_CACTVS_SUBSKEYS>
AAADccBwOAAAAAAAAAAAAAAAAAAAASAAAAAwAAAAAAAAAEgBAAAAGgAAAAAADASgmAMyDoAABACIAihSgAACCAAgIAAIiAAGiMgdJyKEMRqgMCIlwBUOqYfA4DwOIQABCAAIQABCAAIQABCAAAAAAAAAAA==

> <PUBCHEM_IUPAC_OPENEYE_NAME>
(E)-3-(6,7-dimethoxy-1,3-benzodioxol-5-yl)prop-2-enal

> <PUBCHEM_IUPAC_CAS_NAME>
(E)-3-(6,7-dimethoxy-1,3-benzodioxol-5-yl)-2-propenal

> <PUBCHEM_IUPAC_NAME_MARKUP>
(<I>E</I>)-3-(6,7-dimethoxy-1,3-benzodioxol-5-yl)prop-2-enal

> <PUBCHEM_IUPAC_NAME>
(E)-3-(6,7-dimethoxy-1,3-benzodioxol-5-yl)prop-2-enal

> <PUBCHEM_IUPAC_SYSTEMATIC_NAME>
(E)-3-(6,7-dimethoxy-1,3-benzodioxol-5-yl)prop-2-enal

> <PUBCHEM_IUPAC_TRADITIONAL_NAME>
(E)-3-(6,7-dimethoxy-1,3-benzodioxol-5-yl)acrolein

> <PUBCHEM_IUPAC_INCHI>
InChI=1S/C12H12O5/c1-14-10-8(4-3-5-13)6-9-11(12(10)15-2)17-7-16-9/h3-6H,7H2,1-2H3/b4-3+

> <PUBCHEM_IUPAC_INCHIKEY>
UQBPCDWQJZVCPU-ONEGZZNKSA-N

> <PUBCHEM_XLOGP3_AA>
1.6

> <PUBCHEM_EXACT_MASS>
236.06847348

> <PUBCHEM_MOLECULAR_FORMULA>
C12H12O5

> <PUBCHEM_MOLECULAR_WEIGHT>
236.22

> <PUBCHEM_SMILES>
COC1=C(C2=C(C=C1/C=C/C=O)OCO2)OC

> <PUBCHEM_CONNECTIVITY_SMILES>
COC1=C(C2=C(C=C1C=CC=O)OCO2)OC

> <PUBCHEM_CACTVS_TPSA>
54

> <PUBCHEM_MONOISOTOPIC_WEIGHT>
236.06847348

> <PUBCHEM_TOTAL_CHARGE>
0

> <PUBCHEM_HEAVY_ATOM_COUNT>
17

> <PUBCHEM_ATOM_DEF_STEREO_COUNT>
0

> <PUBCHEM_ATOM_UDEF_STEREO_COUNT>
0

> <PUBCHEM_BOND_DEF_STEREO_COUNT>
1

> <PUBCHEM_BOND_UDEF_STEREO_COUNT>
0

> <PUBCHEM_ISOTOPIC_ATOM_COUNT>
0

> <PUBCHEM_COMPONENT_COUNT>
1

> <PUBCHEM_CACTVS_TAUTO_COUNT>
-1

> <PUBCHEM_COORDINATE_TYPE>
1
5
255

> <PUBCHEM_BONDANNOTATIONS>
6  7  8
6  8  8
7  11  8
8  10  8
9  10  8
9  11  8

$$$$
