16130899
  -OEChem-01202613582D

134145  0     1  0  0  0  0  0999 V2000
    6.7878   -1.5355    0.0000 O   0  0  0  0  0  0  0  0  0  0  0  0
    9.5412    1.3300    0.0000 O   0  0  0  0  0  0  0  0  0  0  0  0
    5.8158    0.9253    0.0000 O   0  0  0  0  0  0  0  0  0  0  0  0
   11.2732    3.3300    0.0000 O   0  0  0  0  0  0  0  0  0  0  0  0
    8.4371   -5.1509    0.0000 O   0  0  0  0  0  0  0  0  0  0  0  0
    8.2175    4.8390    0.0000 O   0  0  0  0  0  0  0  0  0  0  0  0
   10.1691   -3.1509    0.0000 O   0  0  0  0  0  0  0  0  0  0  0  0
    5.8752    1.8053    0.0000 O   0  0  0  0  0  0  0  0  0  0  0  0
    9.8732    0.4620    0.0000 O   0  0  0  0  0  0  0  0  0  0  0  0
    7.4501    4.3082    0.0000 O   0  0  0  0  0  0  0  0  0  0  0  0
   10.4044   -2.3009    0.0000 O   0  0  0  0  0  0  0  0  0  0  0  0
   11.8077    4.1013    0.0000 O   0  0  0  0  0  0  0  0  0  0  0  0
    7.2583    7.3791    0.0000 O   0  0  0  0  0  0  0  0  0  0  0  0
    6.1872   -2.2445    0.0000 O   0  0  0  0  0  0  0  0  0  0  0  0
   10.9093    7.0887    0.0000 O   0  0  0  0  0  0  0  0  0  0  0  0
    4.9069   -5.1751    0.0000 O   0  0  0  0  0  0  0  0  0  0  0  0
    3.5085   -3.0341    0.0000 O   0  0  0  0  0  0  0  0  0  0  0  0
   13.8713    1.8300    0.0000 O   0  0  0  0  0  0  0  0  0  0  0  0
    2.2053   -1.5170    0.0000 O   0  0  0  0  0  0  0  0  0  0  0  0
   13.8713   -0.1700    0.0000 O   0  0  0  0  0  0  0  0  0  0  0  0
   11.0351   -7.6509    0.0000 O   0  0  0  0  0  0  0  0  0  0  0  0
   12.7672   -6.6509    0.0000 O   0  0  0  0  0  0  0  0  0  0  0  0
    4.2821    6.8040    0.0000 O   0  0  0  0  0  0  0  0  0  0  0  0
    3.6054    4.9221    0.0000 O   0  0  0  0  0  0  0  0  0  0  0  0
    7.4501    0.3517    0.0000 C   0  0  1  0  0  0  0  0  0  0  0  0
    9.5412    3.3300    0.0000 C   0  0  2  0  0  0  0  0  0  0  0  0
    6.4674    0.1667    0.0000 C   0  0  2  0  0  0  0  0  0  0  0  0
    7.7812    1.2953    0.0000 C   0  0  0  0  0  0  0  0  0  0  0  0
    8.1017   -0.4068    0.0000 C   0  0  0  0  0  0  0  0  0  0  0  0
   10.4072    2.8300    0.0000 C   0  0  2  0  0  0  0  0  0  0  0  0
    8.6752    2.8300    0.0000 C   0  0  0  0  0  0  0  0  0  0  0  0
    6.1363   -0.7769    0.0000 C   0  0  1  0  0  0  0  0  0  0  0  0
    8.6752    1.8300    0.0000 C   0  0  0  0  0  0  0  0  0  0  0  0
    8.4371   -3.1509    0.0000 C   0  0  2  0  0  0  0  0  0  0  0  0
    7.7706   -1.3504    0.0000 C   0  0  0  0  0  0  0  0  0  0  0  0
   10.4072    1.8300    0.0000 C   0  0  1  0  0  0  0  0  0  0  0  0
    8.4370   -2.1509    0.0000 C   0  0  0  0  0  0  0  0  0  0  0  0
    9.8832    4.2697    0.0000 C   0  0  0  0  0  0  0  0  0  0  0  0
    9.3031   -3.6509    0.0000 C   0  0  2  0  0  0  0  0  0  0  0  0
    6.8752    1.8092    0.0000 C   0  0  0  0  0  0  0  0  0  0  0  0
    9.1223   -0.1984    0.0000 C   0  0  0  0  0  0  0  0  0  0  0  0
    7.7812    3.3646    0.0000 C   0  0  0  0  0  0  0  0  0  0  0  0
    9.3032   -4.6509    0.0000 C   0  0  1  0  0  0  0  0  0  0  0  0
    7.5710   -3.6509    0.0000 C   0  0  0  0  0  0  0  0  0  0  0  0
    9.2404    5.0357    0.0000 C   0  0  0  0  0  0  0  0  0  0  0  0
    5.1535   -0.9619    0.0000 C   0  0  0  0  0  0  0  0  0  0  0  0
    9.4621   -1.9661    0.0000 C   0  0  0  0  0  0  0  0  0  0  0  0
   11.2732    1.3300    0.0000 C   0  0  0  0  0  0  0  0  0  0  0  0
    6.8752    2.8508    0.0000 C   0  0  0  0  0  0  0  0  0  0  0  0
    9.5825    5.9754    0.0000 C   0  0  0  0  0  0  0  0  0  0  0  0
    9.8071   -0.9832    0.0000 C   0  0  0  0  0  0  0  0  0  0  0  0
   10.8680    4.4433    0.0000 C   0  0  0  0  0  0  0  0  0  0  0  0
    7.5710   -4.6509    0.0000 C   0  0  0  0  0  0  0  0  0  0  0  0
    8.9253    6.7836    0.0000 C   0  0  0  0  0  0  0  0  0  0  0  0
    7.8981    6.6106    0.0000 C   0  0  2  0  0  0  0  0  0  0  0  0
    7.5419    5.6318    0.0000 C   0  0  1  0  0  0  0  0  0  0  0  0
   10.1691   -5.1509    0.0000 C   0  0  0  0  0  0  0  0  0  0  0  0
    6.6770   -3.1162    0.0000 C   0  0  0  0  0  0  0  0  0  0  0  0
   10.5673    6.1491    0.0000 C   0  0  0  0  0  0  0  0  0  0  0  0
   11.2100    5.3830    0.0000 C   0  0  0  0  0  0  0  0  0  0  0  0
    4.8224   -1.9055    0.0000 C   0  0  0  0  0  0  0  0  0  0  0  0
    4.5019   -0.2034    0.0000 C   0  0  0  0  0  0  0  0  0  0  0  0
   12.1393    1.8300    0.0000 C   0  0  0  0  0  0  0  0  0  0  0  0
   11.2732    0.3300    0.0000 C   0  0  0  0  0  0  0  0  0  0  0  0
    6.6771   -5.1856    0.0000 C   0  0  0  0  0  0  0  0  0  0  0  0
    6.5577    5.4543    0.0000 C   0  0  0  0  0  0  0  0  0  0  0  0
    5.7710   -3.6301    0.0000 C   0  0  0  0  0  0  0  0  0  0  0  0
    5.7711   -4.6717    0.0000 C   0  0  0  0  0  0  0  0  0  0  0  0
    3.8397   -2.0906    0.0000 C   0  0  0  0  0  0  0  0  0  0  0  0
   10.1691   -6.1509    0.0000 C   0  0  0  0  0  0  0  0  0  0  0  0
   11.0351   -4.6509    0.0000 C   0  0  0  0  0  0  0  0  0  0  0  0
    3.5192   -0.3884    0.0000 C   0  0  0  0  0  0  0  0  0  0  0  0
   13.0053    1.3300    0.0000 C   0  0  0  0  0  0  0  0  0  0  0  0
   12.1393   -0.1700    0.0000 C   0  0  0  0  0  0  0  0  0  0  0  0
    3.1880   -1.3320    0.0000 C   0  0  0  0  0  0  0  0  0  0  0  0
   13.0053    0.3300    0.0000 C   0  0  0  0  0  0  0  0  0  0  0  0
    5.9120    6.2179    0.0000 C   0  0  0  0  0  0  0  0  0  0  0  0
    6.2194    4.5134    0.0000 C   0  0  0  0  0  0  0  0  0  0  0  0
   11.0351   -6.6509    0.0000 C   0  0  0  0  0  0  0  0  0  0  0  0
   11.9011   -5.1509    0.0000 C   0  0  0  0  0  0  0  0  0  0  0  0
   11.9011   -6.1509    0.0000 C   0  0  0  0  0  0  0  0  0  0  0  0
    4.9279    6.0405    0.0000 C   0  0  0  0  0  0  0  0  0  0  0  0
    5.2352    4.3360    0.0000 C   0  0  0  0  0  0  0  0  0  0  0  0
    4.5895    5.0996    0.0000 C   0  0  0  0  0  0  0  0  0  0  0  0
    6.8962    0.9965    0.0000 H   0  0  0  0  0  0  0  0  0  0  0  0
   10.3399    3.6207    0.0000 H   0  0  0  0  0  0  0  0  0  0  0  0
    5.8581    0.0520    0.0000 H   0  0  0  0  0  0  0  0  0  0  0  0
   10.9442    2.5200    0.0000 H   0  0  0  0  0  0  0  0  0  0  0  0
    5.9310   -1.3620    0.0000 H   0  0  0  0  0  0  0  0  0  0  0  0
    9.1732   -2.7259    0.0000 H   0  0  0  0  0  0  0  0  0  0  0  0
   10.4072    1.2100    0.0000 H   0  0  0  0  0  0  0  0  0  0  0  0
    9.8400   -3.9609    0.0000 H   0  0  0  0  0  0  0  0  0  0  0  0
    9.3031   -5.2709    0.0000 H   0  0  0  0  0  0  0  0  0  0  0  0
    6.3394    3.1629    0.0000 H   0  0  0  0  0  0  0  0  0  0  0  0
   10.4159   -0.8662    0.0000 H   0  0  0  0  0  0  0  0  0  0  0  0
    5.2065    0.8106    0.0000 H   0  0  0  0  0  0  0  0  0  0  0  0
    9.4662    7.0866    0.0000 H   0  0  0  0  0  0  0  0  0  0  0  0
    8.7192    7.3683    0.0000 H   0  0  0  0  0  0  0  0  0  0  0  0
    7.2873    6.5041    0.0000 H   0  0  0  0  0  0  0  0  0  0  0  0
    7.1424    6.1060    0.0000 H   0  0  0  0  0  0  0  0  0  0  0  0
   11.8102    3.0200    0.0000 H   0  0  0  0  0  0  0  0  0  0  0  0
   11.8206    5.4907    0.0000 H   0  0  0  0  0  0  0  0  0  0  0  0
    5.2264   -2.3758    0.0000 H   0  0  0  0  0  0  0  0  0  0  0  0
    4.7072    0.3817    0.0000 H   0  0  0  0  0  0  0  0  0  0  0  0
   10.7060   -3.4609    0.0000 H   0  0  0  0  0  0  0  0  0  0  0  0
   12.1393    2.4500    0.0000 H   0  0  0  0  0  0  0  0  0  0  0  0
   10.7363    0.0200    0.0000 H   0  0  0  0  0  0  0  0  0  0  0  0
    6.6842   -5.8056    0.0000 H   0  0  0  0  0  0  0  0  0  0  0  0
    5.5631    2.3411    0.0000 H   0  0  0  0  0  0  0  0  0  0  0  0
   10.4606    0.2635    0.0000 H   0  0  0  0  0  0  0  0  0  0  0  0
    6.8408    4.4229    0.0000 H   0  0  0  0  0  0  0  0  0  0  0  0
    5.2353   -3.3180    0.0000 H   0  0  0  0  0  0  0  0  0  0  0  0
   10.8763   -1.8987    0.0000 H   0  0  0  0  0  0  0  0  0  0  0  0
    9.6322   -6.4609    0.0000 H   0  0  0  0  0  0  0  0  0  0  0  0
   11.0351   -4.0309    0.0000 H   0  0  0  0  0  0  0  0  0  0  0  0
    3.1152    0.0819    0.0000 H   0  0  0  0  0  0  0  0  0  0  0  0
   12.2827    4.4998    0.0000 H   0  0  0  0  0  0  0  0  0  0  0  0
   12.1393   -0.7900    0.0000 H   0  0  0  0  0  0  0  0  0  0  0  0
    7.4726    7.9609    0.0000 H   0  0  0  0  0  0  0  0  0  0  0  0
    5.5673   -2.2373    0.0000 H   0  0  0  0  0  0  0  0  0  0  0  0
    6.1218    6.8013    0.0000 H   0  0  0  0  0  0  0  0  0  0  0  0
    6.6197    4.0400    0.0000 H   0  0  0  0  0  0  0  0  0  0  0  0
   11.5199    7.1964    0.0000 H   0  0  0  0  0  0  0  0  0  0  0  0
   12.4381   -4.8409    0.0000 H   0  0  0  0  0  0  0  0  0  0  0  0
    5.0254    3.7526    0.0000 H   0  0  0  0  0  0  0  0  0  0  0  0
    4.9093   -5.7951    0.0000 H   0  0  0  0  0  0  0  0  0  0  0  0
    2.8992   -3.1489    0.0000 H   0  0  0  0  0  0  0  0  0  0  0  0
   14.4083    1.5200    0.0000 H   0  0  0  0  0  0  0  0  0  0  0  0
    2.0000   -2.1020    0.0000 H   0  0  0  0  0  0  0  0  0  0  0  0
   13.8713   -0.7900    0.0000 H   0  0  0  0  0  0  0  0  0  0  0  0
   10.4983   -7.9609    0.0000 H   0  0  0  0  0  0  0  0  0  0  0  0
   12.7672   -7.2709    0.0000 H   0  0  0  0  0  0  0  0  0  0  0  0
    3.6720    6.6940    0.0000 H   0  0  0  0  0  0  0  0  0  0  0  0
    3.3955    4.3387    0.0000 H   0  0  0  0  0  0  0  0  0  0  0  0
  1 32  1  0  0  0  0
  1 35  1  0  0  0  0
  2 33  1  0  0  0  0
  2 36  1  0  0  0  0
 27  3  1  6  0  0  0
  3 96  1  0  0  0  0
 30  4  1  1  0  0  0
  4101  1  0  0  0  0
  5 43  1  0  0  0  0
  5 53  1  0  0  0  0
  6 45  1  0  0  0  0
  6 56  1  0  0  0  0
 39  7  1  1  0  0  0
  7105  1  0  0  0  0
  8 40  1  0  0  0  0
  8109  1  0  0  0  0
  9 41  1  0  0  0  0
  9110  1  0  0  0  0
 10 42  1  0  0  0  0
 10111  1  0  0  0  0
 11 47  1  0  0  0  0
 11113  1  0  0  0  0
 12 52  1  0  0  0  0
 12117  1  0  0  0  0
 55 13  1  6  0  0  0
 13119  1  0  0  0  0
 14 58  1  0  0  0  0
 14120  1  0  0  0  0
 15 59  1  0  0  0  0
 15123  1  0  0  0  0
 16 68  1  0  0  0  0
 16126  1  0  0  0  0
 17 69  1  0  0  0  0
 17127  1  0  0  0  0
 18 73  1  0  0  0  0
 18128  1  0  0  0  0
 19 75  1  0  0  0  0
 19129  1  0  0  0  0
 20 76  1  0  0  0  0
 20130  1  0  0  0  0
 21 79  1  0  0  0  0
 21131  1  0  0  0  0
 22 81  1  0  0  0  0
 22132  1  0  0  0  0
 23 82  1  0  0  0  0
 23133  1  0  0  0  0
 24 84  1  0  0  0  0
 24134  1  0  0  0  0
 25 27  1  0  0  0  0
 25 28  1  0  0  0  0
 25 29  1  0  0  0  0
 25 85  1  6  0  0  0
 26 30  1  0  0  0  0
 26 31  1  0  0  0  0
 26 38  1  0  0  0  0
 26 86  1  1  0  0  0
 27 32  1  0  0  0  0
 27 87  1  0  0  0  0
 28 33  1  0  0  0  0
 28 40  2  0  0  0  0
 29 35  1  0  0  0  0
 29 41  2  0  0  0  0
 30 36  1  0  0  0  0
 30 88  1  0  0  0  0
 31 33  2  0  0  0  0
 31 42  1  0  0  0  0
 32 46  1  6  0  0  0
 32 89  1  0  0  0  0
 34 37  1  0  0  0  0
 34 39  1  0  0  0  0
 34 44  1  0  0  0  0
 34 90  1  1  0  0  0
 35 37  2  0  0  0  0
 36 48  1  1  0  0  0
 36 91  1  0  0  0  0
 37 47  1  0  0  0  0
 38 45  1  0  0  0  0
 38 52  2  0  0  0  0
 39 43  1  0  0  0  0
 39 92  1  0  0  0  0
 40 49  1  0  0  0  0
 41 51  1  0  0  0  0
 42 49  2  0  0  0  0
 43 57  1  1  0  0  0
 43 93  1  0  0  0  0
 44 53  1  0  0  0  0
 44 58  2  0  0  0  0
 45 50  2  0  0  0  0
 46 61  2  0  0  0  0
 46 62  1  0  0  0  0
 47 51  2  0  0  0  0
 48 63  2  0  0  0  0
 48 64  1  0  0  0  0
 49 94  1  0  0  0  0
 50 54  1  0  0  0  0
 50 59  1  0  0  0  0
 51 95  1  0  0  0  0
 52 60  1  0  0  0  0
 53 65  2  0  0  0  0
 54 55  1  0  0  0  0
 54 97  1  0  0  0  0
 54 98  1  0  0  0  0
 55 56  1  0  0  0  0
 55 99  1  0  0  0  0
 56 66  1  6  0  0  0
 56100  1  0  0  0  0
 57 70  2  0  0  0  0
 57 71  1  0  0  0  0
 58 67  1  0  0  0  0
 59 60  2  0  0  0  0
 60102  1  0  0  0  0
 61 69  1  0  0  0  0
 61103  1  0  0  0  0
 62 72  2  0  0  0  0
 62104  1  0  0  0  0
 63 73  1  0  0  0  0
 63106  1  0  0  0  0
 64 74  2  0  0  0  0
 64107  1  0  0  0  0
 65 68  1  0  0  0  0
 65108  1  0  0  0  0
 66 77  2  0  0  0  0
 66 78  1  0  0  0  0
 67 68  2  0  0  0  0
 67112  1  0  0  0  0
 69 75  2  0  0  0  0
 70 79  1  0  0  0  0
 70114  1  0  0  0  0
 71 80  2  0  0  0  0
 71115  1  0  0  0  0
 72 75  1  0  0  0  0
 72116  1  0  0  0  0
 73 76  2  0  0  0  0
 74 76  1  0  0  0  0
 74118  1  0  0  0  0
 77 82  1  0  0  0  0
 77121  1  0  0  0  0
 78 83  2  0  0  0  0
 78122  1  0  0  0  0
 79 81  2  0  0  0  0
 80 81  1  0  0  0  0
 80124  1  0  0  0  0
 82 84  2  0  0  0  0
 83 84  1  0  0  0  0
 83125  1  0  0  0  0
M  END
> <PUBCHEM_COMPOUND_CID>
16130899

> <PUBCHEM_COMPOUND_CANONICALIZED>
1

> <PUBCHEM_CACTVS_COMPLEXITY>
2210

> <PUBCHEM_CACTVS_HBOND_ACCEPTOR>
24

> <PUBCHEM_CACTVS_HBOND_DONOR>
20

> <PUBCHEM_CACTVS_ROTATABLE_BOND>
7

> <PUBCHEM_CACTVS_SUBSKEYS>
AAADcfB8PgAAAAAAAAAAAAAAAAAAAAAAAAA0aNGjAAAAAACRVAAAGgAACAAADRSgmAIwBoAABgCAAiBCAAACCAAgIAAIiAAGiIgNNyKGMRqCeCGlwBULuAfA4PwOoAADCAAIQABAAAYQABCAAAAAAAAAAA==

> <PUBCHEM_IUPAC_OPENEYE_NAME>
(2R,3R,4R)-2-(3,4-dihydroxyphenyl)-4-[(2R,3R,4S)-2-(3,4-dihydroxyphenyl)-4-[(2R,3R)-2-(3,4-dihydroxyphenyl)-3,5,7-trihydroxy-chroman-8-yl]-3,5,7-trihydroxy-chroman-8-yl]-8-[(2R,3R,4R)-2-(3,4-dihydroxyphenyl)-3,5,7-trihydroxy-chroman-4-yl]chromane-3,5,7-triol

> <PUBCHEM_IUPAC_CAS_NAME>
(2R,3R,4R)-2-(3,4-dihydroxyphenyl)-4-[(2R,3R,4S)-2-(3,4-dihydroxyphenyl)-4-[(2R,3R)-2-(3,4-dihydroxyphenyl)-3,5,7-trihydroxy-3,4-dihydro-2H-1-benzopyran-8-yl]-3,5,7-trihydroxy-3,4-dihydro-2H-1-benzopyran-8-yl]-8-[(2R,3R,4R)-2-(3,4-dihydroxyphenyl)-3,5,7-trihydroxy-3,4-dihydro-2H-1-benzopyran-4-yl]-3,4-dihydro-2H-1-benzopyran-3,5,7-triol

> <PUBCHEM_IUPAC_NAME_MARKUP>
(2<I>R</I>,3<I>R</I>,4<I>R</I>)-2-(3,4-dihydroxyphenyl)-4-[(2<I>R</I>,3<I>R</I>,4<I>S</I>)-2-(3,4-dihydroxyphenyl)-4-[(2<I>R</I>,3<I>R</I>)-2-(3,4-dihydroxyphenyl)-3,5,7-trihydroxy-3,4-dihydro-2<I>H</I>-chromen-8-yl]-3,5,7-trihydroxy-3,4-dihydro-2<I>H</I>-chromen-8-yl]-8-[(2<I>R</I>,3<I>R</I>,4<I>R</I>)-2-(3,4-dihydroxyphenyl)-3,5,7-trihydroxy-3,4-dihydro-2<I>H</I>-chromen-4-yl]-3,4-dihydro-2<I>H</I>-chromene-3,5,7-triol

> <PUBCHEM_IUPAC_NAME>
(2R,3R,4R)-2-(3,4-dihydroxyphenyl)-4-[(2R,3R,4S)-2-(3,4-dihydroxyphenyl)-4-[(2R,3R)-2-(3,4-dihydroxyphenyl)-3,5,7-trihydroxy-3,4-dihydro-2H-chromen-8-yl]-3,5,7-trihydroxy-3,4-dihydro-2H-chromen-8-yl]-8-[(2R,3R,4R)-2-(3,4-dihydroxyphenyl)-3,5,7-trihydroxy-3,4-dihydro-2H-chromen-4-yl]-3,4-dihydro-2H-chromene-3,5,7-triol

> <PUBCHEM_IUPAC_SYSTEMATIC_NAME>
(2R,3R,4R)-2-[3,4-bis(oxidanyl)phenyl]-4-[(2R,3R,4S)-2-[3,4-bis(oxidanyl)phenyl]-4-[(2R,3R)-2-[3,4-bis(oxidanyl)phenyl]-3,5,7-tris(oxidanyl)-3,4-dihydro-2H-chromen-8-yl]-3,5,7-tris(oxidanyl)-3,4-dihydro-2H-chromen-8-yl]-8-[(2R,3R,4R)-2-[3,4-bis(oxidanyl)phenyl]-3,5,7-tris(oxidanyl)-3,4-dihydro-2H-chromen-4-yl]-3,4-dihydro-2H-chromene-3,5,7-triol

> <PUBCHEM_IUPAC_TRADITIONAL_NAME>
(2R,3R,4R)-2-(3,4-dihydroxyphenyl)-4-[(2R,3R,4S)-2-(3,4-dihydroxyphenyl)-4-[(2R,3R)-2-(3,4-dihydroxyphenyl)-3,5,7-trihydroxy-chroman-8-yl]-3,5,7-trihydroxy-chroman-8-yl]-8-[(2R,3R,4R)-2-(3,4-dihydroxyphenyl)-3,5,7-trihydroxy-chroman-4-yl]chroman-3,5,7-triol

> <PUBCHEM_IUPAC_INCHI>
InChI=1S/C60H50O24/c61-23-13-34(71)42-41(14-23)81-55(20-2-6-26(63)31(68)10-20)51(78)48(42)44-36(73)17-38(75)46-50(53(80)57(83-59(44)46)22-4-8-28(65)33(70)12-22)47-39(76)18-37(74)45-49(52(79)56(84-60(45)47)21-3-7-27(64)32(69)11-21)43-35(72)16-29(66)24-15-40(77)54(82-58(24)43)19-1-5-25(62)30(67)9-19/h1-14,16-18,40,48-57,61-80H,15H2/t40-,48-,49+,50-,51-,52-,53-,54-,55-,56-,57-/m1/s1

> <PUBCHEM_IUPAC_INCHIKEY>
QFLMUASKTWGRQE-JNIIMKSASA-N

> <PUBCHEM_XLOGP3_AA>
4.3

> <PUBCHEM_EXACT_MASS>
1154.26920246

> <PUBCHEM_MOLECULAR_FORMULA>
C60H50O24

> <PUBCHEM_MOLECULAR_WEIGHT>
1155.0

> <PUBCHEM_SMILES>
C1[C@H]([C@H](OC2=C1C(=CC(=C2[C@@H]3[C@H]([C@H](OC4=C3C(=CC(=C4[C@@H]5[C@H]([C@H](OC6=C(C(=CC(=C56)O)O)[C@@H]7[C@H]([C@H](OC8=CC(=CC(=C78)O)O)C9=CC(=C(C=C9)O)O)O)C1=CC(=C(C=C1)O)O)O)O)O)C1=CC(=C(C=C1)O)O)O)O)O)C1=CC(=C(C=C1)O)O)O

> <PUBCHEM_CONNECTIVITY_SMILES>
C1C(C(OC2=C1C(=CC(=C2C3C(C(OC4=C3C(=CC(=C4C5C(C(OC6=C(C(=CC(=C56)O)O)C7C(C(OC8=CC(=CC(=C78)O)O)C9=CC(=C(C=C9)O)O)O)C1=CC(=C(C=C1)O)O)O)O)O)C1=CC(=C(C=C1)O)O)O)O)O)C1=CC(=C(C=C1)O)O)O

> <PUBCHEM_CACTVS_TPSA>
442

> <PUBCHEM_MONOISOTOPIC_WEIGHT>
1154.26920246

> <PUBCHEM_TOTAL_CHARGE>
0

> <PUBCHEM_HEAVY_ATOM_COUNT>
84

> <PUBCHEM_ATOM_DEF_STEREO_COUNT>
11

> <PUBCHEM_ATOM_UDEF_STEREO_COUNT>
0

> <PUBCHEM_BOND_DEF_STEREO_COUNT>
0

> <PUBCHEM_BOND_UDEF_STEREO_COUNT>
0

> <PUBCHEM_ISOTOPIC_ATOM_COUNT>
0

> <PUBCHEM_COMPONENT_COUNT>
1

> <PUBCHEM_CACTVS_TAUTO_COUNT>
-1

> <PUBCHEM_COORDINATE_TYPE>
1
5
255

> <PUBCHEM_BONDANNOTATIONS>
55  13  6
25  85  6
26  86  5
28  33  8
28  40  8
29  35  8
29  41  8
27  3  6
31  33  8
31  42  8
32  46  6
34  90  5
35  37  8
36  48  5
37  47  8
38  45  8
38  52  8
30  4  5
40  49  8
41  51  8
42  49  8
43  57  5
44  53  8
44  58  8
45  50  8
46  61  8
46  62  8
47  51  8
48  63  8
48  64  8
50  59  8
52  60  8
53  65  8
56  66  6
57  70  8
57  71  8
58  67  8
59  60  8
61  69  8
62  72  8
63  73  8
64  74  8
65  68  8
66  77  8
66  78  8
67  68  8
69  75  8
39  7  5
70  79  8
71  80  8
72  75  8
73  76  8
74  76  8
77  82  8
78  83  8
79  81  8
80  81  8
82  84  8
83  84  8

$$$$
