139087999
  -OEChem-01202622412D

 41 42  0     1  0  0  0  0  0999 V2000
    2.5369    0.5670    0.0000 O   0  0  0  0  0  0  0  0  0  0  0  0
    6.6193    2.0181    0.0000 O   0  0  0  0  0  0  0  0  0  0  0  0
    5.1350    0.0670    0.0000 C   0  0  1  0  0  0  0  0  0  0  0  0
    5.1350   -0.9330    0.0000 C   0  0  2  0  0  0  0  0  0  0  0  0
    4.2690    0.5670    0.0000 C   0  0  2  0  0  0  0  0  0  0  0  0
    6.0812    0.3717    0.0000 C   0  0  1  0  0  0  0  0  0  0  0  0
    6.0812   -1.2378    0.0000 C   0  0  0  0  0  0  0  0  0  0  0  0
    6.6648   -0.4330    0.0000 C   0  0  0  0  0  0  0  0  0  0  0  0
    3.4030    0.0670    0.0000 C   0  0  1  0  0  0  0  0  0  0  0  0
    4.2690   -1.4330    0.0000 C   0  0  0  0  0  0  0  0  0  0  0  0
    4.2690    1.5670    0.0000 C   0  0  0  0  0  0  0  0  0  0  0  0
    3.4030   -0.9330    0.0000 C   0  0  0  0  0  0  0  0  0  0  0  0
    6.8255    1.0396    0.0000 C   0  0  0  0  0  0  0  0  0  0  0  0
    3.4030    2.0670    0.0000 C   0  0  0  0  0  0  0  0  0  0  0  0
    4.7690    2.4330    0.0000 C   0  0  0  0  0  0  0  0  0  0  0  0
    4.2690   -2.4330    0.0000 C   0  0  0  0  0  0  0  0  0  0  0  0
    7.7761    0.7289    0.0000 C   0  0  0  0  0  0  0  0  0  0  0  0
    5.2250    0.9122    0.0000 H   0  0  0  0  0  0  0  0  0  0  0  0
    5.2250   -1.7782    0.0000 H   0  0  0  0  0  0  0  0  0  0  0  0
    4.8059    0.8770    0.0000 H   0  0  0  0  0  0  0  0  0  0  0  0
    5.7724    0.9093    0.0000 H   0  0  0  0  0  0  0  0  0  0  0  0
    5.8302   -1.8047    0.0000 H   0  0  0  0  0  0  0  0  0  0  0  0
    6.6186   -1.5470    0.0000 H   0  0  0  0  0  0  0  0  0  0  0  0
    7.1257   -0.8477    0.0000 H   0  0  0  0  0  0  0  0  0  0  0  0
    7.1257   -0.0183    0.0000 H   0  0  0  0  0  0  0  0  0  0  0  0
    3.4030    0.6870    0.0000 H   0  0  0  0  0  0  0  0  0  0  0  0
    4.8679    1.4065    0.0000 H   0  0  0  0  0  0  0  0  0  0  0  0
    2.7924   -0.8254    0.0000 H   0  0  0  0  0  0  0  0  0  0  0  0
    3.1909   -1.5156    0.0000 H   0  0  0  0  0  0  0  0  0  0  0  0
    3.7130    2.6039    0.0000 H   0  0  0  0  0  0  0  0  0  0  0  0
    2.8660    2.3770    0.0000 H   0  0  0  0  0  0  0  0  0  0  0  0
    3.0930    1.5301    0.0000 H   0  0  0  0  0  0  0  0  0  0  0  0
    5.3059    2.1230    0.0000 H   0  0  0  0  0  0  0  0  0  0  0  0
    5.0790    2.9700    0.0000 H   0  0  0  0  0  0  0  0  0  0  0  0
    4.2321    2.7430    0.0000 H   0  0  0  0  0  0  0  0  0  0  0  0
    3.7321   -2.7430    0.0000 H   0  0  0  0  0  0  0  0  0  0  0  0
    4.8059   -2.7430    0.0000 H   0  0  0  0  0  0  0  0  0  0  0  0
    2.0000    0.2570    0.0000 H   0  0  0  0  0  0  0  0  0  0  0  0
    7.5834    0.1396    0.0000 H   0  0  0  0  0  0  0  0  0  0  0  0
    8.3654    0.5363    0.0000 H   0  0  0  0  0  0  0  0  0  0  0  0
    7.9687    1.3182    0.0000 H   0  0  0  0  0  0  0  0  0  0  0  0
  9  1  1  1  0  0  0
  1 38  1  0  0  0  0
  2 13  2  0  0  0  0
  3  4  1  0  0  0  0
  3  5  1  0  0  0  0
  3  6  1  0  0  0  0
  3 18  1  6  0  0  0
  4  7  1  0  0  0  0
  4 10  1  0  0  0  0
  4 19  1  1  0  0  0
  5  9  1  0  0  0  0
  5 11  1  6  0  0  0
  5 20  1  0  0  0  0
  6  8  1  0  0  0  0
  6 13  1  6  0  0  0
  6 21  1  0  0  0  0
  7  8  1  0  0  0  0
  7 22  1  0  0  0  0
  7 23  1  0  0  0  0
  8 24  1  0  0  0  0
  8 25  1  0  0  0  0
  9 12  1  0  0  0  0
  9 26  1  0  0  0  0
 10 12  1  0  0  0  0
 10 16  2  0  0  0  0
 11 14  1  0  0  0  0
 11 15  1  0  0  0  0
 11 27  1  0  0  0  0
 12 28  1  0  0  0  0
 12 29  1  0  0  0  0
 13 17  1  0  0  0  0
 14 30  1  0  0  0  0
 14 31  1  0  0  0  0
 14 32  1  0  0  0  0
 15 33  1  0  0  0  0
 15 34  1  0  0  0  0
 15 35  1  0  0  0  0
 16 36  1  0  0  0  0
 16 37  1  0  0  0  0
 17 39  1  0  0  0  0
 17 40  1  0  0  0  0
 17 41  1  0  0  0  0
M  END
> <PUBCHEM_COMPOUND_CID>
139087999

> <PUBCHEM_COMPOUND_CANONICALIZED>
1

> <PUBCHEM_CACTVS_COMPLEXITY>
332

> <PUBCHEM_CACTVS_HBOND_ACCEPTOR>
2

> <PUBCHEM_CACTVS_HBOND_DONOR>
1

> <PUBCHEM_CACTVS_ROTATABLE_BOND>
2

> <PUBCHEM_CACTVS_SUBSKEYS>
AAADceBwMAAAAAAAAAAAAAAAAAAAAYAAAAAwAAAAAAAAAGAAAAAAGgAACAAADRSggAICAAAAAgCIAoBSAAAAAAAgAAAAAAEAAAgAEBIAAQAAQAAEwAAAAAGIzPDOgAAAAAAAAABAAAYAADAAAQAACAAAAA==

> <PUBCHEM_IUPAC_OPENEYE_NAME>
1-[(1R,3aS,6R,7R,7aS)-6-hydroxy-7-isopropyl-4-methylene-1,2,3,3a,5,6,7,7a-octahydroinden-1-yl]ethanone

> <PUBCHEM_IUPAC_CAS_NAME>
1-[(1R,3aS,6R,7R,7aS)-6-hydroxy-4-methylene-7-propan-2-yl-1,2,3,3a,5,6,7,7a-octahydroinden-1-yl]ethanone

> <PUBCHEM_IUPAC_NAME_MARKUP>
1-[(1<I>R</I>,3<I>a</I><I>S</I>,6<I>R</I>,7<I>R</I>,7<I>a</I><I>S</I>)-6-hydroxy-4-methylidene-7-propan-2-yl-1,2,3,3<I>a</I>,5,6,7,7<I>a</I>-octahydroinden-1-yl]ethanone

> <PUBCHEM_IUPAC_NAME>
1-[(1R,3aS,6R,7R,7aS)-6-hydroxy-4-methylidene-7-propan-2-yl-1,2,3,3a,5,6,7,7a-octahydroinden-1-yl]ethanone

> <PUBCHEM_IUPAC_SYSTEMATIC_NAME>
1-[(1R,3aS,6R,7R,7aS)-4-methylidene-6-oxidanyl-7-propan-2-yl-1,2,3,3a,5,6,7,7a-octahydroinden-1-yl]ethanone

> <PUBCHEM_IUPAC_TRADITIONAL_NAME>
1-[(1R,3aS,6R,7R,7aS)-6-hydroxy-7-isopropyl-4-methylene-1,2,3,3a,5,6,7,7a-octahydroinden-1-yl]ethanone

> <PUBCHEM_IUPAC_INCHI>
InChI=1S/C15H24O2/c1-8(2)14-13(17)7-9(3)11-5-6-12(10(4)16)15(11)14/h8,11-15,17H,3,5-7H2,1-2,4H3/t11-,12+,13-,14+,15-/m1/s1

> <PUBCHEM_IUPAC_INCHIKEY>
PJKDZBIZDKARAM-QKGCVVFFSA-N

> <PUBCHEM_XLOGP3_AA>
2.4

> <PUBCHEM_EXACT_MASS>
236.177630004

> <PUBCHEM_MOLECULAR_FORMULA>
C15H24O2

> <PUBCHEM_MOLECULAR_WEIGHT>
236.35

> <PUBCHEM_SMILES>
CC(C)[C@H]1[C@@H](CC(=C)[C@@H]2[C@@H]1[C@@H](CC2)C(=O)C)O

> <PUBCHEM_CONNECTIVITY_SMILES>
CC(C)C1C(CC(=C)C2C1C(CC2)C(=O)C)O

> <PUBCHEM_CACTVS_TPSA>
37.3

> <PUBCHEM_MONOISOTOPIC_WEIGHT>
236.177630004

> <PUBCHEM_TOTAL_CHARGE>
0

> <PUBCHEM_HEAVY_ATOM_COUNT>
17

> <PUBCHEM_ATOM_DEF_STEREO_COUNT>
5

> <PUBCHEM_ATOM_UDEF_STEREO_COUNT>
0

> <PUBCHEM_BOND_DEF_STEREO_COUNT>
0

> <PUBCHEM_BOND_UDEF_STEREO_COUNT>
0

> <PUBCHEM_ISOTOPIC_ATOM_COUNT>
0

> <PUBCHEM_COMPONENT_COUNT>
1

> <PUBCHEM_CACTVS_TAUTO_COUNT>
-1

> <PUBCHEM_COORDINATE_TYPE>
1
5
255

> <PUBCHEM_BONDANNOTATIONS>
9  1  5
3  18  6
4  19  5
5  11  6
6  13  6

$$$$
