36689305
  -OEChem-01202622382D

 51 54  0     1  0  0  0  0  0999 V2000
    9.3816    1.5249    0.0000 O   0  0  0  0  0  0  0  0  0  0  0  0
    2.4170    1.5125    0.0000 O   0  0  0  0  0  0  0  0  0  0  0  0
    5.9065    0.6083    0.0000 N   0  0  0  0  0  0  0  0  0  0  0  0
    9.7112    0.5367    0.0000 C   0  0  2  0  0  0  0  0  0  0  0  0
   10.4569   -0.1295    0.0000 C   0  0  0  0  0  0  0  0  0  0  0  0
    7.6904    0.9826    0.0000 C   0  0  0  0  0  0  0  0  0  0  0  0
    8.3596    1.7257    0.0000 C   0  0  0  0  0  0  0  0  0  0  0  0
    6.7123    1.1905    0.0000 C   0  0  0  0  0  0  0  0  0  0  0  0
    9.0142   -0.2373    0.0000 C   0  0  0  0  0  0  0  0  0  0  0  0
    6.4033    2.1415    0.0000 C   0  0  0  0  0  0  0  0  0  0  0  0
   10.6610    0.8494    0.0000 C   0  0  0  0  0  0  0  0  0  0  0  0
    7.9970   -0.0129    0.0000 C   0  0  0  0  0  0  0  0  0  0  0  0
    8.0505    2.6768    0.0000 C   0  0  0  0  0  0  0  0  0  0  0  0
   10.2527   -1.1085    0.0000 C   0  0  0  0  0  0  0  0  0  0  0  0
    5.4092    2.1390    0.0000 C   0  0  0  0  0  0  0  0  0  0  0  0
    7.0724    2.8847    0.0000 C   0  0  0  0  0  0  0  0  0  0  0  0
    5.1028    1.1933    0.0000 C   0  0  0  0  0  0  0  0  0  0  0  0
    8.7197    3.4199    0.0000 C   0  0  0  0  0  0  0  0  0  0  0  0
    4.7276    2.9185    0.0000 C   0  0  0  0  0  0  0  0  0  0  0  0
   10.9984   -1.7747    0.0000 C   0  0  0  0  0  0  0  0  0  0  0  0
    4.0936    0.9615    0.0000 C   0  0  0  0  0  0  0  0  0  0  0  0
    3.7133    2.7101    0.0000 C   0  0  0  0  0  0  0  0  0  0  0  0
    3.3942    1.7250    0.0000 C   0  0  0  0  0  0  0  0  0  0  0  0
   10.7943   -2.7537    0.0000 C   0  0  0  0  0  0  0  0  0  0  0  0
   11.5400   -3.4199    0.0000 C   0  0  0  0  0  0  0  0  0  0  0  0
    9.8444   -3.0663    0.0000 C   0  0  0  0  0  0  0  0  0  0  0  0
   11.0326   -0.3596    0.0000 H   0  0  0  0  0  0  0  0  0  0  0  0
   10.7834    0.3975    0.0000 H   0  0  0  0  0  0  0  0  0  0  0  0
    9.2035   -0.8277    0.0000 H   0  0  0  0  0  0  0  0  0  0  0  0
   10.8549    0.2605    0.0000 H   0  0  0  0  0  0  0  0  0  0  0  0
   11.2499    1.0433    0.0000 H   0  0  0  0  0  0  0  0  0  0  0  0
   10.4671    1.4383    0.0000 H   0  0  0  0  0  0  0  0  0  0  0  0
    7.5768   -0.4688    0.0000 H   0  0  0  0  0  0  0  0  0  0  0  0
    9.6770   -0.8784    0.0000 H   0  0  0  0  0  0  0  0  0  0  0  0
    9.9262   -1.6355    0.0000 H   0  0  0  0  0  0  0  0  0  0  0  0
    6.8808    3.4743    0.0000 H   0  0  0  0  0  0  0  0  0  0  0  0
    5.9055   -0.0117    0.0000 H   0  0  0  0  0  0  0  0  0  0  0  0
    9.1804    3.0051    0.0000 H   0  0  0  0  0  0  0  0  0  0  0  0
    9.1345    3.8807    0.0000 H   0  0  0  0  0  0  0  0  0  0  0  0
    8.2589    3.8348    0.0000 H   0  0  0  0  0  0  0  0  0  0  0  0
    4.9255    3.5060    0.0000 H   0  0  0  0  0  0  0  0  0  0  0  0
   11.5874   -1.5809    0.0000 H   0  0  0  0  0  0  0  0  0  0  0  0
    3.9094    0.3695    0.0000 H   0  0  0  0  0  0  0  0  0  0  0  0
    3.2998    3.1721    0.0000 H   0  0  0  0  0  0  0  0  0  0  0  0
   11.1269   -3.8823    0.0000 H   0  0  0  0  0  0  0  0  0  0  0  0
   12.0024   -3.8330    0.0000 H   0  0  0  0  0  0  0  0  0  0  0  0
   11.9531   -2.9576    0.0000 H   0  0  0  0  0  0  0  0  0  0  0  0
    9.6506   -2.4774    0.0000 H   0  0  0  0  0  0  0  0  0  0  0  0
    9.2555   -3.2602    0.0000 H   0  0  0  0  0  0  0  0  0  0  0  0
   10.0383   -3.6552    0.0000 H   0  0  0  0  0  0  0  0  0  0  0  0
    2.0000    1.9713    0.0000 H   0  0  0  0  0  0  0  0  0  0  0  0
  1  4  1  0  0  0  0
  1  7  1  0  0  0  0
  2 23  1  0  0  0  0
  2 51  1  0  0  0  0
  3  8  1  0  0  0  0
  3 17  1  0  0  0  0
  3 37  1  0  0  0  0
  4  5  1  0  0  0  0
  4  9  1  0  0  0  0
  4 11  1  1  0  0  0
  5 14  1  0  0  0  0
  5 27  1  0  0  0  0
  5 28  1  0  0  0  0
  6  7  2  0  0  0  0
  6  8  1  0  0  0  0
  6 12  1  0  0  0  0
  7 13  1  0  0  0  0
  8 10  2  0  0  0  0
  9 12  2  0  0  0  0
  9 29  1  0  0  0  0
 10 15  1  0  0  0  0
 10 16  1  0  0  0  0
 11 30  1  0  0  0  0
 11 31  1  0  0  0  0
 11 32  1  0  0  0  0
 12 33  1  0  0  0  0
 13 16  2  0  0  0  0
 13 18  1  0  0  0  0
 14 20  1  0  0  0  0
 14 34  1  0  0  0  0
 14 35  1  0  0  0  0
 15 17  2  0  0  0  0
 15 19  1  0  0  0  0
 16 36  1  0  0  0  0
 17 21  1  0  0  0  0
 18 38  1  0  0  0  0
 18 39  1  0  0  0  0
 18 40  1  0  0  0  0
 19 22  2  0  0  0  0
 19 41  1  0  0  0  0
 20 24  2  0  0  0  0
 20 42  1  0  0  0  0
 21 23  2  0  0  0  0
 21 43  1  0  0  0  0
 22 23  1  0  0  0  0
 22 44  1  0  0  0  0
 24 25  1  0  0  0  0
 24 26  1  0  0  0  0
 25 45  1  0  0  0  0
 25 46  1  0  0  0  0
 25 47  1  0  0  0  0
 26 48  1  0  0  0  0
 26 49  1  0  0  0  0
 26 50  1  0  0  0  0
M  END
> <PUBCHEM_COMPOUND_CID>
36689305

> <PUBCHEM_COMPOUND_CANONICALIZED>
1

> <PUBCHEM_CACTVS_COMPLEXITY>
581

> <PUBCHEM_CACTVS_HBOND_ACCEPTOR>
2

> <PUBCHEM_CACTVS_HBOND_DONOR>
2

> <PUBCHEM_CACTVS_ROTATABLE_BOND>
3

> <PUBCHEM_CACTVS_SUBSKEYS>
AAADceB6MAAAAAAAAAAAAAAAAAAAAWAAAAAwYIAAAAAAAFiB/AAAHgAQCAAADEyBngAyxvLJlgCgAyRiRACCiCAhIiAImSA2bJgMJuLGsZuGeCjm0BnI+AeQ0PMOqAACAgAKAABQAAQEABQAAAAAAAAAAA==

> <PUBCHEM_IUPAC_OPENEYE_NAME>
(3R)-3,5-dimethyl-3-(4-methylpent-3-enyl)-11H-pyrano[3,2-a]carbazol-9-ol

> <PUBCHEM_IUPAC_CAS_NAME>
(3R)-3,5-dimethyl-3-(4-methylpent-3-enyl)-11H-pyrano[3,2-a]carbazol-9-ol

> <PUBCHEM_IUPAC_NAME_MARKUP>
(3<I>R</I>)-3,5-dimethyl-3-(4-methylpent-3-enyl)-11<I>H</I>-pyrano[3,2-a]carbazol-9-ol

> <PUBCHEM_IUPAC_NAME>
(3R)-3,5-dimethyl-3-(4-methylpent-3-enyl)-11H-pyrano[3,2-a]carbazol-9-ol

> <PUBCHEM_IUPAC_SYSTEMATIC_NAME>
(3R)-3,5-dimethyl-3-(4-methylpent-3-enyl)-11H-pyrano[3,2-a]carbazol-9-ol

> <PUBCHEM_IUPAC_TRADITIONAL_NAME>
(3R)-3,5-dimethyl-3-(4-methylpent-3-enyl)-11H-pyrano[3,2-a]carbazol-9-ol

> <PUBCHEM_IUPAC_INCHI>
InChI=1S/C23H25NO2/c1-14(2)6-5-10-23(4)11-9-18-21-19(12-15(3)22(18)26-23)17-8-7-16(25)13-20(17)24-21/h6-9,11-13,24-25H,5,10H2,1-4H3/t23-/m1/s1

> <PUBCHEM_IUPAC_INCHIKEY>
DWMBXHWBPZZCTN-HSZRJFAPSA-N

> <PUBCHEM_XLOGP3_AA>
6.3

> <PUBCHEM_EXACT_MASS>
347.188529040

> <PUBCHEM_MOLECULAR_FORMULA>
C23H25NO2

> <PUBCHEM_MOLECULAR_WEIGHT>
347.4

> <PUBCHEM_SMILES>
CC1=CC2=C(C3=C1O[C@](C=C3)(C)CCC=C(C)C)NC4=C2C=CC(=C4)O

> <PUBCHEM_CONNECTIVITY_SMILES>
CC1=CC2=C(C3=C1OC(C=C3)(C)CCC=C(C)C)NC4=C2C=CC(=C4)O

> <PUBCHEM_CACTVS_TPSA>
45.3

> <PUBCHEM_MONOISOTOPIC_WEIGHT>
347.188529040

> <PUBCHEM_TOTAL_CHARGE>
0

> <PUBCHEM_HEAVY_ATOM_COUNT>
26

> <PUBCHEM_ATOM_DEF_STEREO_COUNT>
1

> <PUBCHEM_ATOM_UDEF_STEREO_COUNT>
0

> <PUBCHEM_BOND_DEF_STEREO_COUNT>
0

> <PUBCHEM_BOND_UDEF_STEREO_COUNT>
0

> <PUBCHEM_ISOTOPIC_ATOM_COUNT>
0

> <PUBCHEM_COMPONENT_COUNT>
1

> <PUBCHEM_CACTVS_TAUTO_COUNT>
-1

> <PUBCHEM_COORDINATE_TYPE>
1
5
255

> <PUBCHEM_BONDANNOTATIONS>
10  15  8
10  16  8
13  16  8
15  17  8
15  19  8
17  21  8
19  22  8
21  23  8
22  23  8
3  17  8
3  8  8
4  11  5
6  7  8
6  8  8
7  13  8
8  10  8

$$$$
