24826453
  -OEChem-01202613592D

 71 71  0     1  0  0  0  0  0999 V2000
    8.5991    2.2500    0.0000 O   0  0  0  0  0  0  0  0  0  0  0  0
    7.7331    3.7500    0.0000 O   0  0  0  0  0  0  0  0  0  0  0  0
    4.2690    7.7500    0.0000 O   0  0  0  0  0  0  0  0  0  0  0  0
    2.5369    6.7500    0.0000 O   0  0  0  0  0  0  0  0  0  0  0  0
    9.4651   -2.2500    0.0000 C   0  0  0  0  0  0  0  0  0  0  0  0
    9.4651   -1.2500    0.0000 C   0  0  0  0  0  0  0  0  0  0  0  0
   10.3312   -2.7500    0.0000 C   0  0  0  0  0  0  0  0  0  0  0  0
    8.5991   -0.7500    0.0000 C   0  0  0  0  0  0  0  0  0  0  0  0
   10.3312   -3.7500    0.0000 C   0  0  0  0  0  0  0  0  0  0  0  0
    8.5991    0.2500    0.0000 C   0  0  0  0  0  0  0  0  0  0  0  0
   11.1972   -4.2500    0.0000 C   0  0  0  0  0  0  0  0  0  0  0  0
    7.7331    0.7500    0.0000 C   0  0  0  0  0  0  0  0  0  0  0  0
   11.1972   -5.2500    0.0000 C   0  0  0  0  0  0  0  0  0  0  0  0
    7.7331    1.7500    0.0000 C   0  0  3  0  0  0  0  0  0  0  0  0
   12.0632   -5.7500    0.0000 C   0  0  0  0  0  0  0  0  0  0  0  0
    6.8671    2.2500    0.0000 C   0  0  0  0  0  0  0  0  0  0  0  0
   12.0632   -6.7500    0.0000 C   0  0  0  0  0  0  0  0  0  0  0  0
   12.9292   -7.2500    0.0000 C   0  0  0  0  0  0  0  0  0  0  0  0
    6.8671    3.2500    0.0000 C   0  0  0  0  0  0  0  0  0  0  0  0
    6.0010    3.7500    0.0000 C   0  0  0  0  0  0  0  0  0  0  0  0
    6.0010    4.7500    0.0000 C   0  0  0  0  0  0  0  0  0  0  0  0
   12.9292   -8.2500    0.0000 C   0  0  0  0  0  0  0  0  0  0  0  0
    5.1350    5.2500    0.0000 C   0  0  0  0  0  0  0  0  0  0  0  0
    5.1350    6.2500    0.0000 C   0  0  0  0  0  0  0  0  0  0  0  0
    4.2690    4.7500    0.0000 C   0  0  0  0  0  0  0  0  0  0  0  0
    4.2690    6.7500    0.0000 C   0  0  0  0  0  0  0  0  0  0  0  0
    3.4030    5.2500    0.0000 C   0  0  0  0  0  0  0  0  0  0  0  0
    3.4030    6.2500    0.0000 C   0  0  0  0  0  0  0  0  0  0  0  0
    5.1350    8.2500    0.0000 C   0  0  0  0  0  0  0  0  0  0  0  0
    8.8546   -2.1423    0.0000 H   0  0  0  0  0  0  0  0  0  0  0  0
    9.2531   -2.8326    0.0000 H   0  0  0  0  0  0  0  0  0  0  0  0
   10.0757   -1.3577    0.0000 H   0  0  0  0  0  0  0  0  0  0  0  0
    9.6772   -0.6674    0.0000 H   0  0  0  0  0  0  0  0  0  0  0  0
   10.9417   -2.8577    0.0000 H   0  0  0  0  0  0  0  0  0  0  0  0
   10.5432   -2.1674    0.0000 H   0  0  0  0  0  0  0  0  0  0  0  0
    7.9885   -0.6423    0.0000 H   0  0  0  0  0  0  0  0  0  0  0  0
    8.3871   -1.3326    0.0000 H   0  0  0  0  0  0  0  0  0  0  0  0
    9.7206   -3.6423    0.0000 H   0  0  0  0  0  0  0  0  0  0  0  0
   10.1191   -4.3326    0.0000 H   0  0  0  0  0  0  0  0  0  0  0  0
    9.2097    0.1423    0.0000 H   0  0  0  0  0  0  0  0  0  0  0  0
    8.8112    0.8326    0.0000 H   0  0  0  0  0  0  0  0  0  0  0  0
   11.8078   -4.3577    0.0000 H   0  0  0  0  0  0  0  0  0  0  0  0
   11.4092   -3.6674    0.0000 H   0  0  0  0  0  0  0  0  0  0  0  0
    7.1225    0.8577    0.0000 H   0  0  0  0  0  0  0  0  0  0  0  0
    7.5210    0.1674    0.0000 H   0  0  0  0  0  0  0  0  0  0  0  0
   10.5866   -5.1423    0.0000 H   0  0  0  0  0  0  0  0  0  0  0  0
   10.9851   -5.8326    0.0000 H   0  0  0  0  0  0  0  0  0  0  0  0
    7.7331    2.3700    0.0000 H   0  0  0  0  0  0  0  0  0  0  0  0
   12.6738   -5.8577    0.0000 H   0  0  0  0  0  0  0  0  0  0  0  0
   12.2753   -5.1674    0.0000 H   0  0  0  0  0  0  0  0  0  0  0  0
    6.2565    2.3577    0.0000 H   0  0  0  0  0  0  0  0  0  0  0  0
    6.6550    1.6674    0.0000 H   0  0  0  0  0  0  0  0  0  0  0  0
   11.4526   -6.6423    0.0000 H   0  0  0  0  0  0  0  0  0  0  0  0
   11.8512   -7.3326    0.0000 H   0  0  0  0  0  0  0  0  0  0  0  0
   13.5398   -7.3577    0.0000 H   0  0  0  0  0  0  0  0  0  0  0  0
   13.1413   -6.6674    0.0000 H   0  0  0  0  0  0  0  0  0  0  0  0
    5.3905    3.8577    0.0000 H   0  0  0  0  0  0  0  0  0  0  0  0
    5.7890    3.1674    0.0000 H   0  0  0  0  0  0  0  0  0  0  0  0
    9.1360    1.9400    0.0000 H   0  0  0  0  0  0  0  0  0  0  0  0
    6.6116    4.6423    0.0000 H   0  0  0  0  0  0  0  0  0  0  0  0
    6.2131    5.3326    0.0000 H   0  0  0  0  0  0  0  0  0  0  0  0
   12.3092   -8.2500    0.0000 H   0  0  0  0  0  0  0  0  0  0  0  0
   12.9292   -8.8700    0.0000 H   0  0  0  0  0  0  0  0  0  0  0  0
   13.5492   -8.2500    0.0000 H   0  0  0  0  0  0  0  0  0  0  0  0
    5.6720    6.5600    0.0000 H   0  0  0  0  0  0  0  0  0  0  0  0
    4.2690    4.1300    0.0000 H   0  0  0  0  0  0  0  0  0  0  0  0
    2.8660    4.9400    0.0000 H   0  0  0  0  0  0  0  0  0  0  0  0
    2.0000    6.4400    0.0000 H   0  0  0  0  0  0  0  0  0  0  0  0
    5.4450    7.7131    0.0000 H   0  0  0  0  0  0  0  0  0  0  0  0
    5.6720    8.5600    0.0000 H   0  0  0  0  0  0  0  0  0  0  0  0
    4.8250    8.7869    0.0000 H   0  0  0  0  0  0  0  0  0  0  0  0
  1 14  1  0  0  0  0
  1 59  1  0  0  0  0
  2 19  2  0  0  0  0
  3 26  1  0  0  0  0
  3 29  1  0  0  0  0
  4 28  1  0  0  0  0
  4 68  1  0  0  0  0
  5  6  1  0  0  0  0
  5  7  1  0  0  0  0
  5 30  1  0  0  0  0
  5 31  1  0  0  0  0
  6  8  1  0  0  0  0
  6 32  1  0  0  0  0
  6 33  1  0  0  0  0
  7  9  1  0  0  0  0
  7 34  1  0  0  0  0
  7 35  1  0  0  0  0
  8 10  1  0  0  0  0
  8 36  1  0  0  0  0
  8 37  1  0  0  0  0
  9 11  1  0  0  0  0
  9 38  1  0  0  0  0
  9 39  1  0  0  0  0
 10 12  1  0  0  0  0
 10 40  1  0  0  0  0
 10 41  1  0  0  0  0
 11 13  1  0  0  0  0
 11 42  1  0  0  0  0
 11 43  1  0  0  0  0
 12 14  1  0  0  0  0
 12 44  1  0  0  0  0
 12 45  1  0  0  0  0
 13 15  1  0  0  0  0
 13 46  1  0  0  0  0
 13 47  1  0  0  0  0
 14 16  1  0  0  0  0
 14 48  1  0  0  0  0
 15 17  1  0  0  0  0
 15 49  1  0  0  0  0
 15 50  1  0  0  0  0
 16 19  1  0  0  0  0
 16 51  1  0  0  0  0
 16 52  1  0  0  0  0
 17 18  1  0  0  0  0
 17 53  1  0  0  0  0
 17 54  1  0  0  0  0
 18 22  1  0  0  0  0
 18 55  1  0  0  0  0
 18 56  1  0  0  0  0
 19 20  1  0  0  0  0
 20 21  1  0  0  0  0
 20 57  1  0  0  0  0
 20 58  1  0  0  0  0
 21 23  1  0  0  0  0
 21 60  1  0  0  0  0
 21 61  1  0  0  0  0
 22 62  1  0  0  0  0
 22 63  1  0  0  0  0
 22 64  1  0  0  0  0
 23 24  2  0  0  0  0
 23 25  1  0  0  0  0
 24 26  1  0  0  0  0
 24 65  1  0  0  0  0
 25 27  2  0  0  0  0
 25 66  1  0  0  0  0
 26 28  2  0  0  0  0
 27 28  1  0  0  0  0
 27 67  1  0  0  0  0
 29 69  1  0  0  0  0
 29 70  1  0  0  0  0
 29 71  1  0  0  0  0
M  END
> <PUBCHEM_COMPOUND_CID>
24826453

> <PUBCHEM_COMPOUND_CANONICALIZED>
1

> <PUBCHEM_CACTVS_COMPLEXITY>
398

> <PUBCHEM_CACTVS_HBOND_ACCEPTOR>
4

> <PUBCHEM_CACTVS_HBOND_DONOR>
2

> <PUBCHEM_CACTVS_ROTATABLE_BOND>
18

> <PUBCHEM_CACTVS_SUBSKEYS>
AAADcfB4OAAAAAAAAAAAAAAAAAAAAAAAAAAwAAAAAAAAAAABAAAAGgAACAAADBSgmAIyBoAABgCIAqBSAAACCAAgIAAIiAEGiIgNNjaGMRqAcCMk4BELuAeIyPCOIAABAAAAQABAAAIAAACAAAAAAAAAAA==

> <PUBCHEM_IUPAC_OPENEYE_NAME>
5-hydroxy-1-(4-hydroxy-3-methoxy-phenyl)octadecan-3-one

> <PUBCHEM_IUPAC_CAS_NAME>
5-hydroxy-1-(4-hydroxy-3-methoxyphenyl)-3-octadecanone

> <PUBCHEM_IUPAC_NAME_MARKUP>
5-hydroxy-1-(4-hydroxy-3-methoxyphenyl)octadecan-3-one

> <PUBCHEM_IUPAC_NAME>
5-hydroxy-1-(4-hydroxy-3-methoxyphenyl)octadecan-3-one

> <PUBCHEM_IUPAC_SYSTEMATIC_NAME>
1-(3-methoxy-4-oxidanyl-phenyl)-5-oxidanyl-octadecan-3-one

> <PUBCHEM_IUPAC_TRADITIONAL_NAME>
5-hydroxy-1-(4-hydroxy-3-methoxy-phenyl)octadecan-3-one

> <PUBCHEM_IUPAC_INCHI>
InChI=1S/C25H42O4/c1-3-4-5-6-7-8-9-10-11-12-13-14-22(26)20-23(27)17-15-21-16-18-24(28)25(19-21)29-2/h16,18-19,22,26,28H,3-15,17,20H2,1-2H3

> <PUBCHEM_IUPAC_INCHIKEY>
GLKIRXHYCSFCAM-UHFFFAOYSA-N

> <PUBCHEM_XLOGP3_AA>
7.4

> <PUBCHEM_EXACT_MASS>
406.30830982

> <PUBCHEM_MOLECULAR_FORMULA>
C25H42O4

> <PUBCHEM_MOLECULAR_WEIGHT>
406.6

> <PUBCHEM_SMILES>
CCCCCCCCCCCCCC(CC(=O)CCC1=CC(=C(C=C1)O)OC)O

> <PUBCHEM_CONNECTIVITY_SMILES>
CCCCCCCCCCCCCC(CC(=O)CCC1=CC(=C(C=C1)O)OC)O

> <PUBCHEM_CACTVS_TPSA>
66.8

> <PUBCHEM_MONOISOTOPIC_WEIGHT>
406.30830982

> <PUBCHEM_TOTAL_CHARGE>
0

> <PUBCHEM_HEAVY_ATOM_COUNT>
29

> <PUBCHEM_ATOM_DEF_STEREO_COUNT>
0

> <PUBCHEM_ATOM_UDEF_STEREO_COUNT>
1

> <PUBCHEM_BOND_DEF_STEREO_COUNT>
0

> <PUBCHEM_BOND_UDEF_STEREO_COUNT>
0

> <PUBCHEM_ISOTOPIC_ATOM_COUNT>
0

> <PUBCHEM_COMPONENT_COUNT>
1

> <PUBCHEM_CACTVS_TAUTO_COUNT>
-1

> <PUBCHEM_COORDINATE_TYPE>
1
5
255

> <PUBCHEM_BONDANNOTATIONS>
14  1  3
23  24  8
23  25  8
24  26  8
25  27  8
26  28  8
27  28  8

$$$$
