21764964
  -OEChem-01202622382D

 97 98  0     1  0  0  0  0  0999 V2000
   14.4750   10.0062    0.0000 O   0  0  0  0  0  0  0  0  0  0  0  0
   10.6754    7.9774    0.0000 O   0  0  0  0  0  0  0  0  0  0  0  0
    3.8660   -9.6962    0.0000 O   0  0  0  0  0  0  0  0  0  0  0  0
   12.0263    9.1698    0.0000 C   0  0  0  0  0  0  0  0  0  0  0  0
   12.5263    8.3038    0.0000 C   0  0  2  0  0  0  0  0  0  0  0  0
   12.6954    9.9130    0.0000 C   0  0  0  0  0  0  0  0  0  0  0  0
   13.5044    8.5117    0.0000 C   0  0  0  0  0  0  0  0  0  0  0  0
   13.6090    9.5062    0.0000 C   0  0  0  0  0  0  0  0  0  0  0  0
   11.2831    9.8389    0.0000 C   0  0  0  0  0  0  0  0  0  0  0  0
   11.0415    8.9962    0.0000 C   0  0  0  0  0  0  0  0  0  0  0  0
   12.7342    7.3256    0.0000 C   0  0  0  0  0  0  0  0  0  0  0  0
   11.6603    7.8038    0.0000 C   0  0  0  0  0  0  0  0  0  0  0  0
   11.6603    6.8038    0.0000 C   0  0  0  0  0  0  0  0  0  0  0  0
    3.0000   -7.1962    0.0000 C   0  0  0  0  0  0  0  0  0  0  0  0
    3.0000   -8.1962    0.0000 C   0  0  0  0  0  0  0  0  0  0  0  0
    3.8660   -8.6962    0.0000 C   0  0  1  0  0  0  0  0  0  0  0  0
    3.8660   -6.6962    0.0000 C   0  0  0  0  0  0  0  0  0  0  0  0
    4.7321   -8.1962    0.0000 C   0  0  0  0  0  0  0  0  0  0  0  0
    4.7321   -7.1962    0.0000 C   0  0  0  0  0  0  0  0  0  0  0  0
   10.7942    6.3038    0.0000 C   0  0  0  0  0  0  0  0  0  0  0  0
    2.0000   -7.1962    0.0000 C   0  0  0  0  0  0  0  0  0  0  0  0
    2.5000   -6.3302    0.0000 C   0  0  0  0  0  0  0  0  0  0  0  0
    3.8660   -5.6962    0.0000 C   0  0  0  0  0  0  0  0  0  0  0  0
    5.5981   -6.6962    0.0000 C   0  0  0  0  0  0  0  0  0  0  0  0
   10.7942    5.3038    0.0000 C   0  0  0  0  0  0  0  0  0  0  0  0
    4.7321   -5.1962    0.0000 C   0  0  0  0  0  0  0  0  0  0  0  0
   11.6603    4.8038    0.0000 C   0  0  0  0  0  0  0  0  0  0  0  0
    9.9282    4.8038    0.0000 C   0  0  0  0  0  0  0  0  0  0  0  0
    4.7321   -4.1962    0.0000 C   0  0  0  0  0  0  0  0  0  0  0  0
    9.9282    3.8038    0.0000 C   0  0  0  0  0  0  0  0  0  0  0  0
    3.8660   -3.6962    0.0000 C   0  0  0  0  0  0  0  0  0  0  0  0
    5.5981   -3.6962    0.0000 C   0  0  0  0  0  0  0  0  0  0  0  0
    9.0622    3.3038    0.0000 C   0  0  0  0  0  0  0  0  0  0  0  0
    5.5981   -2.6962    0.0000 C   0  0  0  0  0  0  0  0  0  0  0  0
    9.0622    2.3038    0.0000 C   0  0  0  0  0  0  0  0  0  0  0  0
    6.4641   -2.1962    0.0000 C   0  0  0  0  0  0  0  0  0  0  0  0
    9.9282    1.8038    0.0000 C   0  0  0  0  0  0  0  0  0  0  0  0
    8.1962    1.8038    0.0000 C   0  0  0  0  0  0  0  0  0  0  0  0
    6.4641   -1.1962    0.0000 C   0  0  0  0  0  0  0  0  0  0  0  0
    8.1962    0.8038    0.0000 C   0  0  0  0  0  0  0  0  0  0  0  0
    7.3301   -0.6962    0.0000 C   0  0  0  0  0  0  0  0  0  0  0  0
    5.5981   -0.6962    0.0000 C   0  0  0  0  0  0  0  0  0  0  0  0
    7.3301    0.3038    0.0000 C   0  0  0  0  0  0  0  0  0  0  0  0
   13.0054   10.4499    0.0000 H   0  0  0  0  0  0  0  0  0  0  0  0
   12.1938   10.2774    0.0000 H   0  0  0  0  0  0  0  0  0  0  0  0
   13.5692    7.8951    0.0000 H   0  0  0  0  0  0  0  0  0  0  0  0
   14.1244    8.5117    0.0000 H   0  0  0  0  0  0  0  0  0  0  0  0
   11.6980   10.2997    0.0000 H   0  0  0  0  0  0  0  0  0  0  0  0
   10.8224   10.2538    0.0000 H   0  0  0  0  0  0  0  0  0  0  0  0
   10.8683    9.3782    0.0000 H   0  0  0  0  0  0  0  0  0  0  0  0
   10.9338    9.6068    0.0000 H   0  0  0  0  0  0  0  0  0  0  0  0
   10.4309    8.8886    0.0000 H   0  0  0  0  0  0  0  0  0  0  0  0
   11.1491    8.3856    0.0000 H   0  0  0  0  0  0  0  0  0  0  0  0
   12.1277    7.1967    0.0000 H   0  0  0  0  0  0  0  0  0  0  0  0
   12.8631    6.7192    0.0000 H   0  0  0  0  0  0  0  0  0  0  0  0
   13.3406    7.4545    0.0000 H   0  0  0  0  0  0  0  0  0  0  0  0
   12.1972    6.4938    0.0000 H   0  0  0  0  0  0  0  0  0  0  0  0
    2.3894   -8.0886    0.0000 H   0  0  0  0  0  0  0  0  0  0  0  0
    2.7880   -8.7788    0.0000 H   0  0  0  0  0  0  0  0  0  0  0  0
    4.4030   -9.0062    0.0000 H   0  0  0  0  0  0  0  0  0  0  0  0
    4.9441   -8.7788    0.0000 H   0  0  0  0  0  0  0  0  0  0  0  0
    5.3426   -8.0886    0.0000 H   0  0  0  0  0  0  0  0  0  0  0  0
   10.2573    6.6138    0.0000 H   0  0  0  0  0  0  0  0  0  0  0  0
    2.0000   -6.5762    0.0000 H   0  0  0  0  0  0  0  0  0  0  0  0
    1.3800   -7.1962    0.0000 H   0  0  0  0  0  0  0  0  0  0  0  0
    2.0000   -7.8162    0.0000 H   0  0  0  0  0  0  0  0  0  0  0  0
    3.0369   -6.0202    0.0000 H   0  0  0  0  0  0  0  0  0  0  0  0
    2.1900   -5.7933    0.0000 H   0  0  0  0  0  0  0  0  0  0  0  0
    1.9631   -6.6402    0.0000 H   0  0  0  0  0  0  0  0  0  0  0  0
    3.3291   -5.3862    0.0000 H   0  0  0  0  0  0  0  0  0  0  0  0
    5.9081   -7.2332    0.0000 H   0  0  0  0  0  0  0  0  0  0  0  0
    6.1350   -6.3862    0.0000 H   0  0  0  0  0  0  0  0  0  0  0  0
    5.2881   -6.1593    0.0000 H   0  0  0  0  0  0  0  0  0  0  0  0
    4.4030  -10.0062    0.0000 H   0  0  0  0  0  0  0  0  0  0  0  0
    5.2690   -5.5062    0.0000 H   0  0  0  0  0  0  0  0  0  0  0  0
   11.3503    4.2669    0.0000 H   0  0  0  0  0  0  0  0  0  0  0  0
   12.1972    4.4938    0.0000 H   0  0  0  0  0  0  0  0  0  0  0  0
   11.9703    5.3407    0.0000 H   0  0  0  0  0  0  0  0  0  0  0  0
    9.3913    5.1138    0.0000 H   0  0  0  0  0  0  0  0  0  0  0  0
   10.4651    3.4938    0.0000 H   0  0  0  0  0  0  0  0  0  0  0  0
    4.1760   -3.1593    0.0000 H   0  0  0  0  0  0  0  0  0  0  0  0
    3.3291   -3.3862    0.0000 H   0  0  0  0  0  0  0  0  0  0  0  0
    3.5560   -4.2332    0.0000 H   0  0  0  0  0  0  0  0  0  0  0  0
    6.1350   -4.0062    0.0000 H   0  0  0  0  0  0  0  0  0  0  0  0
    8.5252    3.6138    0.0000 H   0  0  0  0  0  0  0  0  0  0  0  0
    5.0611   -2.3862    0.0000 H   0  0  0  0  0  0  0  0  0  0  0  0
    7.0010   -2.5062    0.0000 H   0  0  0  0  0  0  0  0  0  0  0  0
    9.6182    1.2669    0.0000 H   0  0  0  0  0  0  0  0  0  0  0  0
   10.4651    1.4938    0.0000 H   0  0  0  0  0  0  0  0  0  0  0  0
   10.2382    2.3407    0.0000 H   0  0  0  0  0  0  0  0  0  0  0  0
    7.6592    2.1138    0.0000 H   0  0  0  0  0  0  0  0  0  0  0  0
    8.7331    0.4938    0.0000 H   0  0  0  0  0  0  0  0  0  0  0  0
    7.8671   -1.0062    0.0000 H   0  0  0  0  0  0  0  0  0  0  0  0
    5.9081   -0.1593    0.0000 H   0  0  0  0  0  0  0  0  0  0  0  0
    5.0611   -0.3862    0.0000 H   0  0  0  0  0  0  0  0  0  0  0  0
    5.2881   -1.2332    0.0000 H   0  0  0  0  0  0  0  0  0  0  0  0
    6.7932    0.6138    0.0000 H   0  0  0  0  0  0  0  0  0  0  0  0
  1  8  2  0  0  0  0
  2 12  2  0  0  0  0
 16  3  1  1  0  0  0
  3 74  1  0  0  0  0
  4  5  1  0  0  0  0
  4  6  1  0  0  0  0
  4  9  1  0  0  0  0
  4 10  1  0  0  0  0
  5  7  1  0  0  0  0
  5 11  1  6  0  0  0
  5 12  1  0  0  0  0
  6  8  1  0  0  0  0
  6 44  1  0  0  0  0
  6 45  1  0  0  0  0
  7  8  1  0  0  0  0
  7 46  1  0  0  0  0
  7 47  1  0  0  0  0
  9 48  1  0  0  0  0
  9 49  1  0  0  0  0
  9 50  1  0  0  0  0
 10 51  1  0  0  0  0
 10 52  1  0  0  0  0
 10 53  1  0  0  0  0
 11 54  1  0  0  0  0
 11 55  1  0  0  0  0
 11 56  1  0  0  0  0
 12 13  1  0  0  0  0
 13 20  2  0  0  0  0
 13 57  1  0  0  0  0
 14 15  1  0  0  0  0
 14 17  1  0  0  0  0
 14 21  1  0  0  0  0
 14 22  1  0  0  0  0
 15 16  1  0  0  0  0
 15 58  1  0  0  0  0
 15 59  1  0  0  0  0
 16 18  1  0  0  0  0
 16 60  1  0  0  0  0
 17 19  2  0  0  0  0
 17 23  1  0  0  0  0
 18 19  1  0  0  0  0
 18 61  1  0  0  0  0
 18 62  1  0  0  0  0
 19 24  1  0  0  0  0
 20 25  1  0  0  0  0
 20 63  1  0  0  0  0
 21 64  1  0  0  0  0
 21 65  1  0  0  0  0
 21 66  1  0  0  0  0
 22 67  1  0  0  0  0
 22 68  1  0  0  0  0
 22 69  1  0  0  0  0
 23 26  2  0  0  0  0
 23 70  1  0  0  0  0
 24 71  1  0  0  0  0
 24 72  1  0  0  0  0
 24 73  1  0  0  0  0
 25 27  1  0  0  0  0
 25 28  2  0  0  0  0
 26 29  1  0  0  0  0
 26 75  1  0  0  0  0
 27 76  1  0  0  0  0
 27 77  1  0  0  0  0
 27 78  1  0  0  0  0
 28 30  1  0  0  0  0
 28 79  1  0  0  0  0
 29 31  1  0  0  0  0
 29 32  2  0  0  0  0
 30 33  2  0  0  0  0
 30 80  1  0  0  0  0
 31 81  1  0  0  0  0
 31 82  1  0  0  0  0
 31 83  1  0  0  0  0
 32 34  1  0  0  0  0
 32 84  1  0  0  0  0
 33 35  1  0  0  0  0
 33 85  1  0  0  0  0
 34 36  2  0  0  0  0
 34 86  1  0  0  0  0
 35 37  1  0  0  0  0
 35 38  2  0  0  0  0
 36 39  1  0  0  0  0
 36 87  1  0  0  0  0
 37 88  1  0  0  0  0
 37 89  1  0  0  0  0
 37 90  1  0  0  0  0
 38 40  1  0  0  0  0
 38 91  1  0  0  0  0
 39 41  2  0  0  0  0
 39 42  1  0  0  0  0
 40 43  2  0  0  0  0
 40 92  1  0  0  0  0
 41 43  1  0  0  0  0
 41 93  1  0  0  0  0
 42 94  1  0  0  0  0
 42 95  1  0  0  0  0
 42 96  1  0  0  0  0
 43 97  1  0  0  0  0
M  END
> <PUBCHEM_COMPOUND_CID>
21764964

> <PUBCHEM_COMPOUND_CANONICALIZED>
1

> <PUBCHEM_CACTVS_COMPLEXITY>
1360

> <PUBCHEM_CACTVS_HBOND_ACCEPTOR>
3

> <PUBCHEM_CACTVS_HBOND_DONOR>
1

> <PUBCHEM_CACTVS_ROTATABLE_BOND>
11

> <PUBCHEM_CACTVS_SUBSKEYS>
AAADcfB8MAAAAAAAAAAAAAAAAAAAAYAAAAAgAAAAAAAAAAAAAAAAGgAACAAADhSggAICAAAAAgCIAqBSAAAAAAAgAAAICAEAAEgIEBIAAQAAQAAEwAAIgYOJisCvgAAAAAAAAAAAAAAAAAAAAAAACAAAAA==

> <PUBCHEM_IUPAC_OPENEYE_NAME>
(3R)-3-[(2E,4E,6E,8E,10E,12E,14E,16E,18E)-19-[(4R)-4-hydroxy-2,6,6-trimethyl-cyclohexen-1-yl]-4,8,13,17-tetramethyl-nonadeca-2,4,6,8,10,12,14,16,18-nonaenoyl]-3,4,4-trimethyl-cyclopentanone

> <PUBCHEM_IUPAC_CAS_NAME>
(3R)-3-[(2E,4E,6E,8E,10E,12E,14E,16E,18E)-19-[(4R)-4-hydroxy-2,6,6-trimethyl-1-cyclohexenyl]-4,8,13,17-tetramethyl-1-oxononadeca-2,4,6,8,10,12,14,16,18-nonaenyl]-3,4,4-trimethyl-1-cyclopentanone

> <PUBCHEM_IUPAC_NAME_MARKUP>
(3<I>R</I>)-3-[(2<I>E</I>,4<I>E</I>,6<I>E</I>,8<I>E</I>,10<I>E</I>,12<I>E</I>,14<I>E</I>,16<I>E</I>,18<I>E</I>)-19-[(4<I>R</I>)-4-hydroxy-2,6,6-trimethylcyclohexen-1-yl]-4,8,13,17-tetramethylnonadeca-2,4,6,8,10,12,14,16,18-nonaenoyl]-3,4,4-trimethylcyclopentan-1-one

> <PUBCHEM_IUPAC_NAME>
(3R)-3-[(2E,4E,6E,8E,10E,12E,14E,16E,18E)-19-[(4R)-4-hydroxy-2,6,6-trimethylcyclohexen-1-yl]-4,8,13,17-tetramethylnonadeca-2,4,6,8,10,12,14,16,18-nonaenoyl]-3,4,4-trimethylcyclopentan-1-one

> <PUBCHEM_IUPAC_SYSTEMATIC_NAME>
(4R)-3,3,4-trimethyl-4-[(2E,4E,6E,8E,10E,12E,14E,16E,18E)-4,8,13,17-tetramethyl-19-[(4R)-2,6,6-trimethyl-4-oxidanyl-cyclohexen-1-yl]nonadeca-2,4,6,8,10,12,14,16,18-nonaenoyl]cyclopentan-1-one

> <PUBCHEM_IUPAC_TRADITIONAL_NAME>
(3R)-3-[(2E,4E,6E,8E,10E,12E,14E,16E,18E)-19-[(4R)-4-hydroxy-2,6,6-trimethyl-cyclohexen-1-yl]-4,8,13,17-tetramethyl-nonadeca-2,4,6,8,10,12,14,16,18-nonaenoyl]-3,4,4-trimethyl-cyclopentanone

> <PUBCHEM_IUPAC_INCHI>
InChI=1S/C40H54O3/c1-29(17-13-19-31(3)21-23-36-33(5)25-34(41)26-38(36,6)7)15-11-12-16-30(2)18-14-20-32(4)22-24-37(43)40(10)28-35(42)27-39(40,8)9/h11-24,34,41H,25-28H2,1-10H3/b12-11+,17-13+,18-14+,23-21+,24-22+,29-15+,30-16+,31-19+,32-20+/t34-,40+/m1/s1

> <PUBCHEM_IUPAC_INCHIKEY>
RSVFJNWBMXVMGE-LXQXRHSASA-N

> <PUBCHEM_XLOGP3_AA>
10.2

> <PUBCHEM_EXACT_MASS>
582.40729558

> <PUBCHEM_MOLECULAR_FORMULA>
C40H54O3

> <PUBCHEM_MOLECULAR_WEIGHT>
582.9

> <PUBCHEM_SMILES>
CC1=C(C(C[C@@H](C1)O)(C)C)/C=C/C(=C/C=C/C(=C/C=C/C=C(\C)/C=C/C=C(\C)/C=C/C(=O)[C@@]2(CC(=O)CC2(C)C)C)/C)/C

> <PUBCHEM_CONNECTIVITY_SMILES>
CC1=C(C(CC(C1)O)(C)C)C=CC(=CC=CC(=CC=CC=C(C)C=CC=C(C)C=CC(=O)C2(CC(=O)CC2(C)C)C)C)C

> <PUBCHEM_CACTVS_TPSA>
54.4

> <PUBCHEM_MONOISOTOPIC_WEIGHT>
582.40729558

> <PUBCHEM_TOTAL_CHARGE>
0

> <PUBCHEM_HEAVY_ATOM_COUNT>
43

> <PUBCHEM_ATOM_DEF_STEREO_COUNT>
2

> <PUBCHEM_ATOM_UDEF_STEREO_COUNT>
0

> <PUBCHEM_BOND_DEF_STEREO_COUNT>
9

> <PUBCHEM_BOND_UDEF_STEREO_COUNT>
0

> <PUBCHEM_ISOTOPIC_ATOM_COUNT>
0

> <PUBCHEM_COMPONENT_COUNT>
1

> <PUBCHEM_CACTVS_TAUTO_COUNT>
-1

> <PUBCHEM_COORDINATE_TYPE>
1
5
255

> <PUBCHEM_BONDANNOTATIONS>
16  3  5
5  11  6

$$$$
