72761836
  -OEChem-01202622392D

 42 44  0     1  0  0  0  0  0999 V2000
    5.1350   -0.0420    0.0000 O   0  0  0  0  0  0  0  0  0  0  0  0
    6.8671   -0.0420    0.0000 O   0  0  0  0  0  0  0  0  0  0  0  0
    5.1350   -3.0420    0.0000 O   0  0  0  0  0  0  0  0  0  0  0  0
    3.4030   -2.0420    0.0000 O   0  0  0  0  0  0  0  0  0  0  0  0
    6.8671   -2.0420    0.0000 O   0  0  0  0  0  0  0  0  0  0  0  0
    2.5369   -0.5420    0.0000 O   0  0  0  0  0  0  0  0  0  0  0  0
    8.6793    2.7627    0.0000 N   0  0  0  0  0  0  0  0  0  0  0  0
   10.9470   -0.2097    0.0000 N   0  0  0  0  0  0  0  0  0  0  0  0
    5.1350   -2.0420    0.0000 C   0  0  3  0  0  0  0  0  0  0  0  0
    4.2690   -1.5420    0.0000 C   0  0  3  0  0  0  0  0  0  0  0  0
    6.0010   -1.5420    0.0000 C   0  0  3  0  0  0  0  0  0  0  0  0
    4.2690   -0.5420    0.0000 C   0  0  3  0  0  0  0  0  0  0  0  0
    6.0010   -0.5420    0.0000 C   0  0  3  0  0  0  0  0  0  0  0  0
    3.4030   -0.0420    0.0000 C   0  0  0  0  0  0  0  0  0  0  0  0
    6.8671    0.9580    0.0000 C   0  0  0  0  0  0  0  0  0  0  0  0
    7.7331    1.4580    0.0000 C   0  0  0  0  0  0  0  0  0  0  0  0
    7.7331    2.4580    0.0000 C   0  0  0  0  0  0  0  0  0  0  0  0
    8.6793    1.1532    0.0000 C   0  0  0  0  0  0  0  0  0  0  0  0
    6.0010    1.4580    0.0000 C   0  0  0  0  0  0  0  0  0  0  0  0
    9.2629    1.9580    0.0000 C   0  0  0  0  0  0  0  0  0  0  0  0
    6.8671    2.9580    0.0000 C   0  0  0  0  0  0  0  0  0  0  0  0
    6.0010    2.4580    0.0000 C   0  0  0  0  0  0  0  0  0  0  0  0
    8.9900    0.2027    0.0000 C   0  0  0  0  0  0  0  0  0  0  0  0
    9.9685   -0.0035    0.0000 C   0  0  0  0  0  0  0  0  0  0  0  0
    4.5981   -2.3520    0.0000 H   0  0  0  0  0  0  0  0  0  0  0  0
    4.2690   -2.1620    0.0000 H   0  0  0  0  0  0  0  0  0  0  0  0
    6.0010   -2.1620    0.0000 H   0  0  0  0  0  0  0  0  0  0  0  0
    4.2690    0.0780    0.0000 H   0  0  0  0  0  0  0  0  0  0  0  0
    6.0010    0.0780    0.0000 H   0  0  0  0  0  0  0  0  0  0  0  0
    3.8015    0.4329    0.0000 H   0  0  0  0  0  0  0  0  0  0  0  0
    3.0044    0.4329    0.0000 H   0  0  0  0  0  0  0  0  0  0  0  0
    4.5981   -3.3520    0.0000 H   0  0  0  0  0  0  0  0  0  0  0  0
    3.4030   -2.6620    0.0000 H   0  0  0  0  0  0  0  0  0  0  0  0
    6.8671   -2.6620    0.0000 H   0  0  0  0  0  0  0  0  0  0  0  0
    5.4641    1.1480    0.0000 H   0  0  0  0  0  0  0  0  0  0  0  0
    2.0000   -0.2320    0.0000 H   0  0  0  0  0  0  0  0  0  0  0  0
    8.8719    3.3520    0.0000 H   0  0  0  0  0  0  0  0  0  0  0  0
    9.8829    1.9580    0.0000 H   0  0  0  0  0  0  0  0  0  0  0  0
    6.8671    3.5780    0.0000 H   0  0  0  0  0  0  0  0  0  0  0  0
    5.4641    2.7680    0.0000 H   0  0  0  0  0  0  0  0  0  0  0  0
    8.3762    0.1154    0.0000 H   0  0  0  0  0  0  0  0  0  0  0  0
    8.9694   -0.4169    0.0000 H   0  0  0  0  0  0  0  0  0  0  0  0
  1 12  1  0  0  0  0
  1 13  1  0  0  0  0
  2 13  1  0  0  0  0
  2 15  1  0  0  0  0
  3  9  1  0  0  0  0
  3 32  1  0  0  0  0
  4 10  1  0  0  0  0
  4 33  1  0  0  0  0
  5 11  1  0  0  0  0
  5 34  1  0  0  0  0
  6 14  1  0  0  0  0
  6 36  1  0  0  0  0
  7 17  1  0  0  0  0
  7 20  1  0  0  0  0
  7 37  1  0  0  0  0
  8 24  3  0  0  0  0
  9 10  1  0  0  0  0
  9 11  1  0  0  0  0
  9 25  1  0  0  0  0
 10 12  1  0  0  0  0
 10 26  1  0  0  0  0
 11 13  1  0  0  0  0
 11 27  1  0  0  0  0
 12 14  1  0  0  0  0
 12 28  1  0  0  0  0
 13 29  1  0  0  0  0
 14 30  1  0  0  0  0
 14 31  1  0  0  0  0
 15 16  1  0  0  0  0
 15 19  2  0  0  0  0
 16 17  2  0  0  0  0
 16 18  1  0  0  0  0
 17 21  1  0  0  0  0
 18 20  2  0  0  0  0
 18 23  1  0  0  0  0
 19 22  1  0  0  0  0
 19 35  1  0  0  0  0
 20 38  1  0  0  0  0
 21 22  2  0  0  0  0
 21 39  1  0  0  0  0
 22 40  1  0  0  0  0
 23 24  1  0  0  0  0
 23 41  1  0  0  0  0
 23 42  1  0  0  0  0
M  END
> <PUBCHEM_COMPOUND_CID>
72761836

> <PUBCHEM_COMPOUND_CANONICALIZED>
1

> <PUBCHEM_CACTVS_COMPLEXITY>
482

> <PUBCHEM_CACTVS_HBOND_ACCEPTOR>
7

> <PUBCHEM_CACTVS_HBOND_DONOR>
5

> <PUBCHEM_CACTVS_ROTATABLE_BOND>
4

> <PUBCHEM_CACTVS_SUBSKEYS>
AAADceB7OAAAAAAAAAAAAAAAAAAAAWAAAAA0QAAAAAAAAFgB8AAAHgAQCAAADBzxngc8zvLJlgCwBzRnRACCiCAxIiAI2aA+bJgdtuLEsZumeCjn0BnP6A/w8O8OgAAAAgAKAAAAAAAEABQAAAAAAAAAAA==

> <PUBCHEM_IUPAC_OPENEYE_NAME>
2-[4-[3,4,5-trihydroxy-6-(hydroxymethyl)tetrahydropyran-2-yl]oxy-1H-indol-3-yl]acetonitrile

> <PUBCHEM_IUPAC_CAS_NAME>
2-[4-[[3,4,5-trihydroxy-6-(hydroxymethyl)-2-oxanyl]oxy]-1H-indol-3-yl]acetonitrile

> <PUBCHEM_IUPAC_NAME_MARKUP>
2-[4-[3,4,5-trihydroxy-6-(hydroxymethyl)oxan-2-yl]oxy-1<I>H</I>-indol-3-yl]acetonitrile

> <PUBCHEM_IUPAC_NAME>
2-[4-[3,4,5-trihydroxy-6-(hydroxymethyl)oxan-2-yl]oxy-1H-indol-3-yl]acetonitrile

> <PUBCHEM_IUPAC_SYSTEMATIC_NAME>
2-[4-[6-(hydroxymethyl)-3,4,5-tris(oxidanyl)oxan-2-yl]oxy-1H-indol-3-yl]ethanenitrile

> <PUBCHEM_IUPAC_TRADITIONAL_NAME>
2-[4-(3,4,5-trihydroxy-6-methylol-tetrahydropyran-2-yl)oxy-1H-indol-3-yl]acetonitrile

> <PUBCHEM_IUPAC_INCHI>
InChI=1S/C16H18N2O6/c17-5-4-8-6-18-9-2-1-3-10(12(8)9)23-16-15(22)14(21)13(20)11(7-19)24-16/h1-3,6,11,13-16,18-22H,4,7H2

> <PUBCHEM_IUPAC_INCHIKEY>
ZVFUTZQNUQUJLW-UHFFFAOYSA-N

> <PUBCHEM_XLOGP3_AA>
-0.5

> <PUBCHEM_EXACT_MASS>
334.11648630

> <PUBCHEM_MOLECULAR_FORMULA>
C16H18N2O6

> <PUBCHEM_MOLECULAR_WEIGHT>
334.32

> <PUBCHEM_SMILES>
C1=CC2=C(C(=C1)OC3C(C(C(C(O3)CO)O)O)O)C(=CN2)CC#N

> <PUBCHEM_CONNECTIVITY_SMILES>
C1=CC2=C(C(=C1)OC3C(C(C(C(O3)CO)O)O)O)C(=CN2)CC#N

> <PUBCHEM_CACTVS_TPSA>
139

> <PUBCHEM_MONOISOTOPIC_WEIGHT>
334.11648630

> <PUBCHEM_TOTAL_CHARGE>
0

> <PUBCHEM_HEAVY_ATOM_COUNT>
24

> <PUBCHEM_ATOM_DEF_STEREO_COUNT>
0

> <PUBCHEM_ATOM_UDEF_STEREO_COUNT>
5

> <PUBCHEM_BOND_DEF_STEREO_COUNT>
0

> <PUBCHEM_BOND_UDEF_STEREO_COUNT>
0

> <PUBCHEM_ISOTOPIC_ATOM_COUNT>
0

> <PUBCHEM_COMPONENT_COUNT>
1

> <PUBCHEM_CACTVS_TAUTO_COUNT>
-1

> <PUBCHEM_COORDINATE_TYPE>
1
5
255

> <PUBCHEM_BONDANNOTATIONS>
12  14  3
15  16  8
15  19  8
16  17  8
16  18  8
17  21  8
18  20  8
19  22  8
13  2  3
21  22  8
9  3  3
10  4  3
11  5  3
7  17  8
7  20  8

$$$$
