10047025
  -OEChem-01202622362D

 54 57  0     0  0  0  0  0  0999 V2000
    9.2322    1.2621    0.0000 O   0  0  0  0  0  0  0  0  0  0  0  0
    7.2622    0.2135    0.0000 O   0  0  0  0  0  0  0  0  0  0  0  0
   11.2479    3.1171    0.0000 O   0  0  0  0  0  0  0  0  0  0  0  0
    5.5138   -2.8211    0.0000 O   0  0  0  0  0  0  0  0  0  0  0  0
    5.5138    1.2481    0.0000 O   0  0  0  0  0  0  0  0  0  0  0  0
    7.2622   -2.7865    0.0000 O   0  0  0  0  0  0  0  0  0  0  0  0
    3.7320   -1.8106    0.0000 C   0  0  0  0  0  0  0  0  0  0  0  0
    4.5961   -1.3073    0.0000 C   0  0  0  0  0  0  0  0  0  0  0  0
   10.7546    2.2473    0.0000 C   0  0  0  0  0  0  0  0  0  0  0  0
    6.3961   -1.2865    0.0000 C   0  0  0  0  0  0  0  0  0  0  0  0
    9.0221    0.2482    0.0000 C   0  0  0  0  0  0  0  0  0  0  0  0
   10.2613    1.3774    0.0000 C   0  0  0  0  0  0  0  0  0  0  0  0
    8.1282   -0.2865    0.0000 C   0  0  0  0  0  0  0  0  0  0  0  0
    5.5022   -1.8211    0.0000 C   0  0  0  0  0  0  0  0  0  0  0  0
    9.9282   -0.2656    0.0000 C   0  0  0  0  0  0  0  0  0  0  0  0
    8.1282   -1.2865    0.0000 C   0  0  0  0  0  0  0  0  0  0  0  0
    6.3961   -0.2865    0.0000 C   0  0  0  0  0  0  0  0  0  0  0  0
    7.2622   -1.7865    0.0000 C   0  0  0  0  0  0  0  0  0  0  0  0
   10.6905    0.4351    0.0000 C   0  0  0  0  0  0  0  0  0  0  0  0
    3.2287   -0.9465    0.0000 C   0  0  0  0  0  0  0  0  0  0  0  0
    4.2354   -2.6747    0.0000 C   0  0  0  0  0  0  0  0  0  0  0  0
    4.5961   -0.2656    0.0000 C   0  0  0  0  0  0  0  0  0  0  0  0
    5.5022    0.2482    0.0000 C   0  0  0  0  0  0  0  0  0  0  0  0
    2.8680   -2.3139    0.0000 C   0  0  0  0  0  0  0  0  0  0  0  0
    9.9282   -1.3073    0.0000 C   0  0  0  0  0  0  0  0  0  0  0  0
    9.0221   -1.8211    0.0000 C   0  0  0  0  0  0  0  0  0  0  0  0
   11.6244    1.7540    0.0000 C   0  0  0  0  0  0  0  0  0  0  0  0
    9.8847    2.7406    0.0000 C   0  0  0  0  0  0  0  0  0  0  0  0
    2.0000   -1.8173    0.0000 C   0  0  0  0  0  0  0  0  0  0  0  0
   12.2478    3.1248    0.0000 C   0  0  0  0  0  0  0  0  0  0  0  0
   11.2982    0.3119    0.0000 H   0  0  0  0  0  0  0  0  0  0  0  0
    3.7644   -0.6345    0.0000 H   0  0  0  0  0  0  0  0  0  0  0  0
    2.9166   -0.4108    0.0000 H   0  0  0  0  0  0  0  0  0  0  0  0
    2.6930   -1.2586    0.0000 H   0  0  0  0  0  0  0  0  0  0  0  0
    3.6996   -2.9868    0.0000 H   0  0  0  0  0  0  0  0  0  0  0  0
    4.5474   -3.2104    0.0000 H   0  0  0  0  0  0  0  0  0  0  0  0
    4.7711   -2.3626    0.0000 H   0  0  0  0  0  0  0  0  0  0  0  0
    4.0604    0.0464    0.0000 H   0  0  0  0  0  0  0  0  0  0  0  0
    2.8703   -2.9339    0.0000 H   0  0  0  0  0  0  0  0  0  0  0  0
   10.4639   -1.6193    0.0000 H   0  0  0  0  0  0  0  0  0  0  0  0
    9.0150   -2.4411    0.0000 H   0  0  0  0  0  0  0  0  0  0  0  0
   11.3186    1.2146    0.0000 H   0  0  0  0  0  0  0  0  0  0  0  0
   12.1637    1.4481    0.0000 H   0  0  0  0  0  0  0  0  0  0  0  0
   11.9303    2.2933    0.0000 H   0  0  0  0  0  0  0  0  0  0  0  0
   10.1906    3.2799    0.0000 H   0  0  0  0  0  0  0  0  0  0  0  0
    9.3454    3.0464    0.0000 H   0  0  0  0  0  0  0  0  0  0  0  0
    9.5789    2.2013    0.0000 H   0  0  0  0  0  0  0  0  0  0  0  0
    6.0542   -3.1248    0.0000 H   0  0  0  0  0  0  0  0  0  0  0  0
    1.9976   -1.1973    0.0000 H   0  0  0  0  0  0  0  0  0  0  0  0
    1.4643   -2.1294    0.0000 H   0  0  0  0  0  0  0  0  0  0  0  0
   12.2526    2.5048    0.0000 H   0  0  0  0  0  0  0  0  0  0  0  0
   12.8678    3.1296    0.0000 H   0  0  0  0  0  0  0  0  0  0  0  0
   12.2431    3.7448    0.0000 H   0  0  0  0  0  0  0  0  0  0  0  0
    4.9804    1.5643    0.0000 H   0  0  0  0  0  0  0  0  0  0  0  0
  1 11  1  0  0  0  0
  1 12  1  0  0  0  0
  2 13  1  0  0  0  0
  2 17  1  0  0  0  0
  3  9  1  0  0  0  0
  3 30  1  0  0  0  0
  4 14  1  0  0  0  0
  4 48  1  0  0  0  0
  5 23  1  0  0  0  0
  5 54  1  0  0  0  0
  6 18  2  0  0  0  0
  7  8  1  0  0  0  0
  7 20  1  0  0  0  0
  7 21  1  0  0  0  0
  7 24  1  0  0  0  0
  8 14  1  0  0  0  0
  8 22  2  0  0  0  0
  9 12  1  0  0  0  0
  9 27  1  0  0  0  0
  9 28  1  0  0  0  0
 10 14  2  0  0  0  0
 10 17  1  0  0  0  0
 10 18  1  0  0  0  0
 11 13  1  0  0  0  0
 11 15  2  0  0  0  0
 12 19  2  0  0  0  0
 13 16  2  0  0  0  0
 15 19  1  0  0  0  0
 15 25  1  0  0  0  0
 16 18  1  0  0  0  0
 16 26  1  0  0  0  0
 17 23  2  0  0  0  0
 19 31  1  0  0  0  0
 20 32  1  0  0  0  0
 20 33  1  0  0  0  0
 20 34  1  0  0  0  0
 21 35  1  0  0  0  0
 21 36  1  0  0  0  0
 21 37  1  0  0  0  0
 22 23  1  0  0  0  0
 22 38  1  0  0  0  0
 24 29  2  0  0  0  0
 24 39  1  0  0  0  0
 25 26  2  0  0  0  0
 25 40  1  0  0  0  0
 26 41  1  0  0  0  0
 27 42  1  0  0  0  0
 27 43  1  0  0  0  0
 27 44  1  0  0  0  0
 28 45  1  0  0  0  0
 28 46  1  0  0  0  0
 28 47  1  0  0  0  0
 29 49  1  0  0  0  0
 29 50  1  0  0  0  0
 30 51  1  0  0  0  0
 30 52  1  0  0  0  0
 30 53  1  0  0  0  0
M  END
> <PUBCHEM_COMPOUND_CID>
10047025

> <PUBCHEM_COMPOUND_CANONICALIZED>
1

> <PUBCHEM_CACTVS_COMPLEXITY>
687

> <PUBCHEM_CACTVS_HBOND_ACCEPTOR>
6

> <PUBCHEM_CACTVS_HBOND_DONOR>
2

> <PUBCHEM_CACTVS_ROTATABLE_BOND>
4

> <PUBCHEM_CACTVS_SUBSKEYS>
AAADceB4OAAAAAAAAAAAAAAAAAAAASAAAAA0YIAAAAAAAEiR9AAAGgAACAAADkSAmAIyBsAABkCIAqBSAAICCAAkIAAIiAFGiMgNJzaGNR6CeWOl4BULuYfL7PzP4QADCAAIQADCAAYQABCAAAAAAAAAAA==

> <PUBCHEM_IUPAC_OPENEYE_NAME>
8-(1,1-dimethylallyl)-7,10-dihydroxy-2-(1-methoxy-1-methyl-ethyl)furo[3,2-c]xanthen-6-one

> <PUBCHEM_IUPAC_CAS_NAME>
7,10-dihydroxy-2-(2-methoxypropan-2-yl)-8-(2-methylbut-3-en-2-yl)-6-furo[3,2-c]xanthenone

> <PUBCHEM_IUPAC_NAME_MARKUP>
7,10-dihydroxy-2-(2-methoxypropan-2-yl)-8-(2-methylbut-3-en-2-yl)furo[3,2-c]xanthen-6-one

> <PUBCHEM_IUPAC_NAME>
7,10-dihydroxy-2-(2-methoxypropan-2-yl)-8-(2-methylbut-3-en-2-yl)furo[3,2-c]xanthen-6-one

> <PUBCHEM_IUPAC_SYSTEMATIC_NAME>
2-(2-methoxypropan-2-yl)-8-(2-methylbut-3-en-2-yl)-7,10-bis(oxidanyl)furo[3,2-c]xanthen-6-one

> <PUBCHEM_IUPAC_TRADITIONAL_NAME>
8-(1,1-dimethylallyl)-7,10-dihydroxy-2-(1-methoxy-1-methyl-ethyl)furo[3,2-c]xanthen-6-one

> <PUBCHEM_IUPAC_INCHI>
InChI=1S/C24H24O6/c1-7-23(2,3)14-11-15(25)22-17(19(14)27)18(26)13-9-8-12-10-16(24(4,5)28-6)29-20(12)21(13)30-22/h7-11,25,27H,1H2,2-6H3

> <PUBCHEM_IUPAC_INCHIKEY>
OZJCGTVVJDALBR-UHFFFAOYSA-N

> <PUBCHEM_XLOGP3_AA>
5.4

> <PUBCHEM_EXACT_MASS>
408.15728848

> <PUBCHEM_MOLECULAR_FORMULA>
C24H24O6

> <PUBCHEM_MOLECULAR_WEIGHT>
408.4

> <PUBCHEM_SMILES>
CC(C)(C=C)C1=CC(=C2C(=C1O)C(=O)C3=C(O2)C4=C(C=C3)C=C(O4)C(C)(C)OC)O

> <PUBCHEM_CONNECTIVITY_SMILES>
CC(C)(C=C)C1=CC(=C2C(=C1O)C(=O)C3=C(O2)C4=C(C=C3)C=C(O4)C(C)(C)OC)O

> <PUBCHEM_CACTVS_TPSA>
89.1

> <PUBCHEM_MONOISOTOPIC_WEIGHT>
408.15728848

> <PUBCHEM_TOTAL_CHARGE>
0

> <PUBCHEM_HEAVY_ATOM_COUNT>
30

> <PUBCHEM_ATOM_DEF_STEREO_COUNT>
0

> <PUBCHEM_ATOM_UDEF_STEREO_COUNT>
0

> <PUBCHEM_BOND_DEF_STEREO_COUNT>
0

> <PUBCHEM_BOND_UDEF_STEREO_COUNT>
0

> <PUBCHEM_ISOTOPIC_ATOM_COUNT>
0

> <PUBCHEM_COMPONENT_COUNT>
1

> <PUBCHEM_CACTVS_TAUTO_COUNT>
-1

> <PUBCHEM_COORDINATE_TYPE>
1
5
255

> <PUBCHEM_BONDANNOTATIONS>
1  11  8
1  12  8
10  14  8
10  17  8
10  18  8
11  13  8
11  15  8
12  19  8
13  16  8
15  19  8
15  25  8
16  18  8
16  26  8
17  23  8
2  13  8
2  17  8
22  23  8
25  26  8
8  14  8
8  22  8

$$$$
