161407441
  -OEChem-01202614022D

182190  0     0  0  0  0  0  0999 V2000
   16.8111    5.9030    0.0000 I   0  0  0  0  0  0  0  0  0  0  0  0
   21.1412    1.4030    0.0000 Si  0  0  0  0  0  0  0  0  0  0  0  0
   15.9451    1.4030    0.0000 Si  0  0  0  0  0  0  0  0  0  0  0  0
    2.5404    9.3420    0.0000 O   0  0  0  0  0  0  0  0  0  0  0  0
   14.5791    9.7690    0.0000 O   0  0  0  0  0  0  0  0  0  0  0  0
   13.5791    9.7690    0.0000 O   0  0  0  0  0  0  0  0  0  0  0  0
    3.0404   11.9401    0.0000 O   0  0  0  0  0  0  0  0  0  0  0  0
   15.0791   12.3671    0.0000 O   0  0  0  0  0  0  0  0  0  0  0  0
   19.4092    3.4030    0.0000 O   0  0  0  0  0  0  0  0  0  0  0  0
   17.6771    3.4030    0.0000 O   0  0  0  0  0  0  0  0  0  0  0  0
   12.0791    7.1709    0.0000 O   0  0  0  0  0  0  0  0  0  0  0  0
    1.4526    9.2850    0.0000 N   0  0  0  0  0  0  0  0  0  0  0  0
    6.5045    7.4760    0.0000 N   0  0  0  0  0  0  0  0  0  0  0  0
    1.4526    7.6670    0.0000 N   0  0  0  0  0  0  0  0  0  0  0  0
   18.5432    7.9030    0.0000 N   0  0  0  0  0  0  0  0  0  0  0  0
   13.5791    8.0369    0.0000 N   0  0  0  0  0  0  0  0  0  0  0  0
   19.4092    6.4030    0.0000 N   0  0  0  0  0  0  0  0  0  0  0  0
    7.3706    5.9760    0.0000 N   0  0  0  0  0  0  0  0  0  0  0  0
    0.5016    8.9760    0.0000 N   0  0  0  0  0  0  0  0  0  0  0  0
   18.5432    4.9030    0.0000 N   0  0  0  0  0  0  0  0  0  0  0  0
   20.3554    6.0982    0.0000 N   0  0  0  0  0  0  0  0  0  0  0  0
    8.3168    5.6713    0.0000 N   0  0  0  0  0  0  0  0  0  0  0  0
    6.5045    4.4760    0.0000 N   0  0  0  0  0  0  0  0  0  0  0  0
   20.6689   10.2762    0.0000 N   0  0  0  0  0  0  0  0  0  0  0  0
    8.6302    9.8493    0.0000 N   0  0  0  0  0  0  0  0  0  0  0  0
   21.6194    9.9656    0.0000 N   0  0  0  0  0  0  0  0  0  0  0  0
    9.5808    9.5386    0.0000 N   0  0  0  0  0  0  0  0  0  0  0  0
   17.7446   16.8891    0.0000 N   0  0  0  0  0  0  0  0  0  0  0  0
   16.8786   16.3891    0.0000 N   0  0  0  0  0  0  0  0  0  0  0  0
    3.0404    8.4760    0.0000 C   0  0  0  0  0  0  0  0  0  0  0  0
    4.7725    7.4760    0.0000 C   0  0  0  0  0  0  0  0  0  0  0  0
    3.0404    7.4760    0.0000 C   0  0  0  0  0  0  0  0  0  0  0  0
    3.9065    8.9760    0.0000 C   0  0  0  0  0  0  0  0  0  0  0  0
   15.0791    8.9030    0.0000 C   0  0  0  0  0  0  0  0  0  0  0  0
    3.9065    6.9760    0.0000 C   0  0  0  0  0  0  0  0  0  0  0  0
    4.7725    8.4760    0.0000 C   0  0  0  0  0  0  0  0  0  0  0  0
   16.8111    7.9030    0.0000 C   0  0  0  0  0  0  0  0  0  0  0  0
   15.0791    7.9030    0.0000 C   0  0  0  0  0  0  0  0  0  0  0  0
   15.9451    9.4030    0.0000 C   0  0  0  0  0  0  0  0  0  0  0  0
   15.9451    7.4030    0.0000 C   0  0  0  0  0  0  0  0  0  0  0  0
   16.8111    8.9030    0.0000 C   0  0  0  0  0  0  0  0  0  0  0  0
    2.0404    8.4760    0.0000 C   0  0  0  0  0  0  0  0  0  0  0  0
    5.6385    6.9760    0.0000 C   0  0  0  0  0  0  0  0  0  0  0  0
   17.6771    7.4030    0.0000 C   0  0  0  0  0  0  0  0  0  0  0  0
   14.0791    8.9030    0.0000 C   0  0  0  0  0  0  0  0  0  0  0  0
    3.0404   10.2081    0.0000 C   0  0  0  0  0  0  0  0  0  0  0  0
    5.6385    5.9760    0.0000 C   0  0  0  0  0  0  0  0  0  0  0  0
   17.6771    6.4030    0.0000 C   0  0  0  0  0  0  0  0  0  0  0  0
   15.0791   10.6350    0.0000 C   0  0  0  0  0  0  0  0  0  0  0  0
   18.5432    5.9030    0.0000 C   0  0  0  0  0  0  0  0  0  0  0  0
   19.4092    7.4030    0.0000 C   0  0  0  0  0  0  0  0  0  0  0  0
    7.3706    6.9760    0.0000 C   0  0  0  0  0  0  0  0  0  0  0  0
    6.5045    5.4760    0.0000 C   0  0  0  0  0  0  0  0  0  0  0  0
    2.5404   11.0741    0.0000 C   0  0  0  0  0  0  0  0  0  0  0  0
    0.5016    7.9760    0.0000 C   0  0  0  0  0  0  0  0  0  0  0  0
   14.5791   11.5010    0.0000 C   0  0  0  0  0  0  0  0  0  0  0  0
   20.3554    7.7077    0.0000 C   0  0  0  0  0  0  0  0  0  0  0  0
    8.3168    7.2807    0.0000 C   0  0  0  0  0  0  0  0  0  0  0  0
   12.5791    8.0369    0.0000 C   0  0  0  0  0  0  0  0  0  0  0  0
   20.9390    6.9030    0.0000 C   0  0  0  0  0  0  0  0  0  0  0  0
    8.9004    6.4760    0.0000 C   0  0  0  0  0  0  0  0  0  0  0  0
   19.4092    4.4030    0.0000 C   0  0  0  0  0  0  0  0  0  0  0  0
   17.6771    4.4030    0.0000 C   0  0  0  0  0  0  0  0  0  0  0  0
   20.6661    8.6582    0.0000 C   0  0  0  0  0  0  0  0  0  0  0  0
    8.6274    8.2313    0.0000 C   0  0  0  0  0  0  0  0  0  0  0  0
    2.5404   12.8061    0.0000 C   0  0  0  0  0  0  0  0  0  0  0  0
   20.0797    9.4682    0.0000 C   0  0  0  0  0  0  0  0  0  0  0  0
    8.0411    9.0413    0.0000 C   0  0  0  0  0  0  0  0  0  0  0  0
   21.6177    8.9656    0.0000 C   0  0  0  0  0  0  0  0  0  0  0  0
    9.5790    8.5386    0.0000 C   0  0  0  0  0  0  0  0  0  0  0  0
   14.5791   13.2331    0.0000 C   0  0  0  0  0  0  0  0  0  0  0  0
   20.2752    2.9030    0.0000 C   0  0  0  0  0  0  0  0  0  0  0  0
   16.8111    2.9030    0.0000 C   0  0  0  0  0  0  0  0  0  0  0  0
   20.2752    1.9030    0.0000 C   0  0  0  0  0  0  0  0  0  0  0  0
   16.8111    1.9030    0.0000 C   0  0  0  0  0  0  0  0  0  0  0  0
   22.0073    0.9030    0.0000 C   0  0  0  0  0  0  0  0  0  0  0  0
   20.6412    0.5369    0.0000 C   0  0  0  0  0  0  0  0  0  0  0  0
   21.6412    2.2690    0.0000 C   0  0  0  0  0  0  0  0  0  0  0  0
   15.0791    0.9030    0.0000 C   0  0  0  0  0  0  0  0  0  0  0  0
   16.4451    0.5369    0.0000 C   0  0  0  0  0  0  0  0  0  0  0  0
   15.4451    2.2690    0.0000 C   0  0  0  0  0  0  0  0  0  0  0  0
   20.3615   11.2278    0.0000 C   0  0  0  0  0  0  0  0  0  0  0  0
    8.3229   10.8009    0.0000 C   0  0  0  0  0  0  0  0  0  0  0  0
   19.3837   11.4374    0.0000 C   0  0  0  0  0  0  0  0  0  0  0  0
   21.0319   11.9698    0.0000 C   0  0  0  0  0  0  0  0  0  0  0  0
    8.9933   11.5429    0.0000 C   0  0  0  0  0  0  0  0  0  0  0  0
    7.3451   11.0105    0.0000 C   0  0  0  0  0  0  0  0  0  0  0  0
   19.0763   12.3890    0.0000 C   0  0  0  0  0  0  0  0  0  0  0  0
   20.7245   12.9214    0.0000 C   0  0  0  0  0  0  0  0  0  0  0  0
    8.6859   12.4945    0.0000 C   0  0  0  0  0  0  0  0  0  0  0  0
    7.0377   11.9621    0.0000 C   0  0  0  0  0  0  0  0  0  0  0  0
   19.7467   13.1310    0.0000 C   0  0  0  0  0  0  0  0  0  0  0  0
    7.7081   12.7041    0.0000 C   0  0  0  0  0  0  0  0  0  0  0  0
    5.3094    7.7860    0.0000 H   0  0  0  0  0  0  0  0  0  0  0  0
    2.4298    7.5837    0.0000 H   0  0  0  0  0  0  0  0  0  0  0  0
    2.8284    6.8934    0.0000 H   0  0  0  0  0  0  0  0  0  0  0  0
    4.3050    9.4510    0.0000 H   0  0  0  0  0  0  0  0  0  0  0  0
    3.5079    9.4510    0.0000 H   0  0  0  0  0  0  0  0  0  0  0  0
    3.5079    6.5011    0.0000 H   0  0  0  0  0  0  0  0  0  0  0  0
    4.3050    6.5011    0.0000 H   0  0  0  0  0  0  0  0  0  0  0  0
    5.3831    8.3684    0.0000 H   0  0  0  0  0  0  0  0  0  0  0  0
    4.9845    9.0586    0.0000 H   0  0  0  0  0  0  0  0  0  0  0  0
   17.3480    8.2130    0.0000 H   0  0  0  0  0  0  0  0  0  0  0  0
   14.4685    8.0106    0.0000 H   0  0  0  0  0  0  0  0  0  0  0  0
   14.8670    7.3204    0.0000 H   0  0  0  0  0  0  0  0  0  0  0  0
   16.3436    9.8779    0.0000 H   0  0  0  0  0  0  0  0  0  0  0  0
   15.5466    9.8779    0.0000 H   0  0  0  0  0  0  0  0  0  0  0  0
   15.5466    6.9280    0.0000 H   0  0  0  0  0  0  0  0  0  0  0  0
   16.3436    6.9280    0.0000 H   0  0  0  0  0  0  0  0  0  0  0  0
   17.4217    8.7953    0.0000 H   0  0  0  0  0  0  0  0  0  0  0  0
   17.0232    9.4856    0.0000 H   0  0  0  0  0  0  0  0  0  0  0  0
    3.5154    9.8095    0.0000 H   0  0  0  0  0  0  0  0  0  0  0  0
    3.5154   10.6066    0.0000 H   0  0  0  0  0  0  0  0  0  0  0  0
    5.1016    5.6660    0.0000 H   0  0  0  0  0  0  0  0  0  0  0  0
    1.6442    9.8747    0.0000 H   0  0  0  0  0  0  0  0  0  0  0  0
   15.5540   10.2365    0.0000 H   0  0  0  0  0  0  0  0  0  0  0  0
   15.5540   11.0335    0.0000 H   0  0  0  0  0  0  0  0  0  0  0  0
   13.8891    7.5000    0.0000 H   0  0  0  0  0  0  0  0  0  0  0  0
    2.0655   11.4726    0.0000 H   0  0  0  0  0  0  0  0  0  0  0  0
    2.0655   10.6756    0.0000 H   0  0  0  0  0  0  0  0  0  0  0  0
    0.0000    7.6116    0.0000 H   0  0  0  0  0  0  0  0  0  0  0  0
   14.1041   11.8996    0.0000 H   0  0  0  0  0  0  0  0  0  0  0  0
   14.1041   11.1025    0.0000 H   0  0  0  0  0  0  0  0  0  0  0  0
   12.2691    8.5739    0.0000 H   0  0  0  0  0  0  0  0  0  0  0  0
   21.5590    6.9030    0.0000 H   0  0  0  0  0  0  0  0  0  0  0  0
    5.9676    4.1660    0.0000 H   0  0  0  0  0  0  0  0  0  0  0  0
    7.0415    4.1660    0.0000 H   0  0  0  0  0  0  0  0  0  0  0  0
    9.5204    6.4760    0.0000 H   0  0  0  0  0  0  0  0  0  0  0  0
   20.0198    4.2953    0.0000 H   0  0  0  0  0  0  0  0  0  0  0  0
   19.6212    4.9856    0.0000 H   0  0  0  0  0  0  0  0  0  0  0  0
   17.4651    4.9856    0.0000 H   0  0  0  0  0  0  0  0  0  0  0  0
   17.0665    4.2953    0.0000 H   0  0  0  0  0  0  0  0  0  0  0  0
    3.0774   13.1161    0.0000 H   0  0  0  0  0  0  0  0  0  0  0  0
    2.2304   13.3431    0.0000 H   0  0  0  0  0  0  0  0  0  0  0  0
    2.0035   12.4961    0.0000 H   0  0  0  0  0  0  0  0  0  0  0  0
   19.4597    9.4693    0.0000 H   0  0  0  0  0  0  0  0  0  0  0  0
    7.4211    9.0424    0.0000 H   0  0  0  0  0  0  0  0  0  0  0  0
   22.1186    8.6003    0.0000 H   0  0  0  0  0  0  0  0  0  0  0  0
   10.0800    8.1733    0.0000 H   0  0  0  0  0  0  0  0  0  0  0  0
   15.1160   13.5431    0.0000 H   0  0  0  0  0  0  0  0  0  0  0  0
   14.2691   13.7700    0.0000 H   0  0  0  0  0  0  0  0  0  0  0  0
   14.0421   12.9231    0.0000 H   0  0  0  0  0  0  0  0  0  0  0  0
   20.8858    2.7953    0.0000 H   0  0  0  0  0  0  0  0  0  0  0  0
   20.4873    3.4856    0.0000 H   0  0  0  0  0  0  0  0  0  0  0  0
   16.5991    3.4856    0.0000 H   0  0  0  0  0  0  0  0  0  0  0  0
   16.2005    2.7953    0.0000 H   0  0  0  0  0  0  0  0  0  0  0  0
   19.6646    2.0106    0.0000 H   0  0  0  0  0  0  0  0  0  0  0  0
   20.0632    1.3204    0.0000 H   0  0  0  0  0  0  0  0  0  0  0  0
   17.0232    1.3204    0.0000 H   0  0  0  0  0  0  0  0  0  0  0  0
   17.4217    2.0106    0.0000 H   0  0  0  0  0  0  0  0  0  0  0  0
   21.6973    0.3660    0.0000 H   0  0  0  0  0  0  0  0  0  0  0  0
   22.5442    0.5930    0.0000 H   0  0  0  0  0  0  0  0  0  0  0  0
   22.3173    1.4399    0.0000 H   0  0  0  0  0  0  0  0  0  0  0  0
   20.1043    0.8469    0.0000 H   0  0  0  0  0  0  0  0  0  0  0  0
   20.3312    0.0000    0.0000 H   0  0  0  0  0  0  0  0  0  0  0  0
   21.1782    0.2269    0.0000 H   0  0  0  0  0  0  0  0  0  0  0  0
   22.1782    1.9590    0.0000 H   0  0  0  0  0  0  0  0  0  0  0  0
   21.9512    2.8059    0.0000 H   0  0  0  0  0  0  0  0  0  0  0  0
   21.1043    2.5790    0.0000 H   0  0  0  0  0  0  0  0  0  0  0  0
   14.7691    1.4399    0.0000 H   0  0  0  0  0  0  0  0  0  0  0  0
   14.5421    0.5930    0.0000 H   0  0  0  0  0  0  0  0  0  0  0  0
   15.3891    0.3660    0.0000 H   0  0  0  0  0  0  0  0  0  0  0  0
   15.9081    0.2269    0.0000 H   0  0  0  0  0  0  0  0  0  0  0  0
   16.7551    0.0000    0.0000 H   0  0  0  0  0  0  0  0  0  0  0  0
   16.9820    0.8469    0.0000 H   0  0  0  0  0  0  0  0  0  0  0  0
   15.9820    2.5790    0.0000 H   0  0  0  0  0  0  0  0  0  0  0  0
   15.1351    2.8059    0.0000 H   0  0  0  0  0  0  0  0  0  0  0  0
   14.9081    1.9590    0.0000 H   0  0  0  0  0  0  0  0  0  0  0  0
   18.9680   10.9774    0.0000 H   0  0  0  0  0  0  0  0  0  0  0  0
   21.6381   11.8399    0.0000 H   0  0  0  0  0  0  0  0  0  0  0  0
    9.5995   11.4129    0.0000 H   0  0  0  0  0  0  0  0  0  0  0  0
    6.9294   10.5505    0.0000 H   0  0  0  0  0  0  0  0  0  0  0  0
   18.4701   12.5190    0.0000 H   0  0  0  0  0  0  0  0  0  0  0  0
   21.1402   13.3814    0.0000 H   0  0  0  0  0  0  0  0  0  0  0  0
    9.1016   12.9545    0.0000 H   0  0  0  0  0  0  0  0  0  0  0  0
    6.4315   12.0920    0.0000 H   0  0  0  0  0  0  0  0  0  0  0  0
   19.5562   13.7210    0.0000 H   0  0  0  0  0  0  0  0  0  0  0  0
    7.5176   13.2941    0.0000 H   0  0  0  0  0  0  0  0  0  0  0  0
   18.2816   16.5791    0.0000 H   0  0  0  0  0  0  0  0  0  0  0  0
   17.7446   17.5091    0.0000 H   0  0  0  0  0  0  0  0  0  0  0  0
   16.3417   16.6991    0.0000 H   0  0  0  0  0  0  0  0  0  0  0  0
   16.8786   15.7691    0.0000 H   0  0  0  0  0  0  0  0  0  0  0  0
  1 48  1  0  0  0  0
  2 74  1  0  0  0  0
  2 76  1  0  0  0  0
  2 77  1  0  0  0  0
  2 78  1  0  0  0  0
  3 75  1  0  0  0  0
  3 79  1  0  0  0  0
  3 80  1  0  0  0  0
  3 81  1  0  0  0  0
  4 30  1  0  0  0  0
  4 46  1  0  0  0  0
  5 34  1  0  0  0  0
  5 49  1  0  0  0  0
  6 45  2  0  0  0  0
  7 54  1  0  0  0  0
  7 66  1  0  0  0  0
  8 56  1  0  0  0  0
  8 71  1  0  0  0  0
  9 62  1  0  0  0  0
  9 72  1  0  0  0  0
 10 63  1  0  0  0  0
 10 73  1  0  0  0  0
 11 59  2  0  0  0  0
 12 19  1  0  0  0  0
 12 42  1  0  0  0  0
 12115  1  0  0  0  0
 13 43  2  0  0  0  0
 13 52  1  0  0  0  0
 14 42  2  0  0  0  0
 14 55  1  0  0  0  0
 15 44  2  0  0  0  0
 15 51  1  0  0  0  0
 16 45  1  0  0  0  0
 16 59  1  0  0  0  0
 16118  1  0  0  0  0
 17 21  1  0  0  0  0
 17 50  1  0  0  0  0
 17 51  1  0  0  0  0
 18 22  1  0  0  0  0
 18 52  1  0  0  0  0
 18 53  1  0  0  0  0
 19 55  2  0  0  0  0
 20 50  1  0  0  0  0
 20 62  1  0  0  0  0
 20 63  1  0  0  0  0
 21 60  2  0  0  0  0
 22 61  2  0  0  0  0
 23 53  1  0  0  0  0
 23126  1  0  0  0  0
 23127  1  0  0  0  0
 24 26  1  0  0  0  0
 24 67  1  0  0  0  0
 24 82  1  0  0  0  0
 25 27  1  0  0  0  0
 25 68  1  0  0  0  0
 25 83  1  0  0  0  0
 26 69  2  0  0  0  0
 27 70  2  0  0  0  0
 28 29  1  0  0  0  0
 28179  1  0  0  0  0
 28180  1  0  0  0  0
 29181  1  0  0  0  0
 29182  1  0  0  0  0
 30 32  1  0  0  0  0
 30 33  1  0  0  0  0
 30 42  1  0  0  0  0
 31 35  1  0  0  0  0
 31 36  1  0  0  0  0
 31 43  1  0  0  0  0
 31 94  1  0  0  0  0
 32 35  1  0  0  0  0
 32 95  1  0  0  0  0
 32 96  1  0  0  0  0
 33 36  1  0  0  0  0
 33 97  1  0  0  0  0
 33 98  1  0  0  0  0
 34 38  1  0  0  0  0
 34 39  1  0  0  0  0
 34 45  1  0  0  0  0
 35 99  1  0  0  0  0
 35100  1  0  0  0  0
 36101  1  0  0  0  0
 36102  1  0  0  0  0
 37 40  1  0  0  0  0
 37 41  1  0  0  0  0
 37 44  1  0  0  0  0
 37103  1  0  0  0  0
 38 40  1  0  0  0  0
 38104  1  0  0  0  0
 38105  1  0  0  0  0
 39 41  1  0  0  0  0
 39106  1  0  0  0  0
 39107  1  0  0  0  0
 40108  1  0  0  0  0
 40109  1  0  0  0  0
 41110  1  0  0  0  0
 41111  1  0  0  0  0
 43 47  1  0  0  0  0
 44 48  1  0  0  0  0
 46 54  1  0  0  0  0
 46112  1  0  0  0  0
 46113  1  0  0  0  0
 47 53  2  0  0  0  0
 47114  1  0  0  0  0
 48 50  2  0  0  0  0
 49 56  1  0  0  0  0
 49116  1  0  0  0  0
 49117  1  0  0  0  0
 51 57  2  0  0  0  0
 52 58  2  0  0  0  0
 54119  1  0  0  0  0
 54120  1  0  0  0  0
 55121  1  0  0  0  0
 56122  1  0  0  0  0
 56123  1  0  0  0  0
 57 60  1  0  0  0  0
 57 64  1  0  0  0  0
 58 61  1  0  0  0  0
 58 65  1  0  0  0  0
 59124  1  0  0  0  0
 60125  1  0  0  0  0
 61128  1  0  0  0  0
 62129  1  0  0  0  0
 62130  1  0  0  0  0
 63131  1  0  0  0  0
 63132  1  0  0  0  0
 64 67  2  0  0  0  0
 64 69  1  0  0  0  0
 65 68  2  0  0  0  0
 65 70  1  0  0  0  0
 66133  1  0  0  0  0
 66134  1  0  0  0  0
 66135  1  0  0  0  0
 67136  1  0  0  0  0
 68137  1  0  0  0  0
 69138  1  0  0  0  0
 70139  1  0  0  0  0
 71140  1  0  0  0  0
 71141  1  0  0  0  0
 71142  1  0  0  0  0
 72 74  1  0  0  0  0
 72143  1  0  0  0  0
 72144  1  0  0  0  0
 73 75  1  0  0  0  0
 73145  1  0  0  0  0
 73146  1  0  0  0  0
 74147  1  0  0  0  0
 74148  1  0  0  0  0
 75149  1  0  0  0  0
 75150  1  0  0  0  0
 76151  1  0  0  0  0
 76152  1  0  0  0  0
 76153  1  0  0  0  0
 77154  1  0  0  0  0
 77155  1  0  0  0  0
 77156  1  0  0  0  0
 78157  1  0  0  0  0
 78158  1  0  0  0  0
 78159  1  0  0  0  0
 79160  1  0  0  0  0
 79161  1  0  0  0  0
 79162  1  0  0  0  0
 80163  1  0  0  0  0
 80164  1  0  0  0  0
 80165  1  0  0  0  0
 81166  1  0  0  0  0
 81167  1  0  0  0  0
 81168  1  0  0  0  0
 82 84  2  0  0  0  0
 82 85  1  0  0  0  0
 83 86  2  0  0  0  0
 83 87  1  0  0  0  0
 84 88  1  0  0  0  0
 84169  1  0  0  0  0
 85 89  2  0  0  0  0
 85170  1  0  0  0  0
 86 90  1  0  0  0  0
 86171  1  0  0  0  0
 87 91  2  0  0  0  0
 87172  1  0  0  0  0
 88 92  2  0  0  0  0
 88173  1  0  0  0  0
 89 92  1  0  0  0  0
 89174  1  0  0  0  0
 90 93  2  0  0  0  0
 90175  1  0  0  0  0
 91 93  1  0  0  0  0
 91176  1  0  0  0  0
 92177  1  0  0  0  0
 93178  1  0  0  0  0
M  END
> <PUBCHEM_COMPOUND_CID>
161407441

> <PUBCHEM_COMPOUND_CANONICALIZED>
1

> <PUBCHEM_CACTVS_COMPLEXITY>
1880

> <PUBCHEM_CACTVS_HBOND_ACCEPTOR>
20

> <PUBCHEM_CACTVS_HBOND_DONOR>
5

> <PUBCHEM_CACTVS_ROTATABLE_BOND>
27

> <PUBCHEM_CACTVS_SUBSKEYS>
AAADcfB//AwAAgAAAAAAAAAAAAAAAWLFixY8eMGCAAAAAFgB/gAAHhA4AAAADUzjvwZ/8J/rFAGqAzd39AaShCuxgqId+KF4ZJiLKPLA2dWPpAh8niLayCeY2OOOgAAAAAAAAADAAAAAAAAAAAAAAAAAAA==

> <PUBCHEM_IUPAC_OPENEYE_NAME>
4-[7-[bis(2-trimethylsilylethoxymethyl)amino]-6-iodo-3-(1-phenylpyrazol-4-yl)pyrazolo[1,5-a]pyrimidin-5-yl]-N-formyl-1-(2-methoxyethoxy)cyclohexanecarboxamide;hydrazine;5-[4-(2-methoxyethoxy)-4-(1H-1,2,4-triazol-5-yl)cyclohexyl]-3-(1-phenylpyrazol-4-yl)pyrazolo[1,5-a]pyrimidin-7-amine

> <PUBCHEM_IUPAC_CAS_NAME>
4-[7-[bis(2-trimethylsilylethoxymethyl)amino]-6-iodo-3-(1-phenyl-4-pyrazolyl)-5-pyrazolo[1,5-a]pyrimidinyl]-N-formyl-1-(2-methoxyethoxy)-1-cyclohexanecarboxamide;hydrazine;5-[4-(2-methoxyethoxy)-4-(1H-1,2,4-triazol-5-yl)cyclohexyl]-3-(1-phenyl-4-pyrazolyl)-7-pyrazolo[1,5-a]pyrimidinamine

> <PUBCHEM_IUPAC_NAME_MARKUP>
4-[7-[bis(2-trimethylsilylethoxymethyl)amino]-6-iodo-3-(1-phenylpyrazol-4-yl)pyrazolo[1,5-a]pyrimidin-5-yl]-<I>N</I>-formyl-1-(2-methoxyethoxy)cyclohexane-1-carboxamide;hydrazine;5-[4-(2-methoxyethoxy)-4-(1<I>H</I>-1,2,4-triazol-5-yl)cyclohexyl]-3-(1-phenylpyrazol-4-yl)pyrazolo[1,5-a]pyrimidin-7-amine

> <PUBCHEM_IUPAC_NAME>
4-[7-[bis(2-trimethylsilylethoxymethyl)amino]-6-iodo-3-(1-phenylpyrazol-4-yl)pyrazolo[1,5-a]pyrimidin-5-yl]-N-formyl-1-(2-methoxyethoxy)cyclohexane-1-carboxamide;hydrazine;5-[4-(2-methoxyethoxy)-4-(1H-1,2,4-triazol-5-yl)cyclohexyl]-3-(1-phenylpyrazol-4-yl)pyrazolo[1,5-a]pyrimidin-7-amine

> <PUBCHEM_IUPAC_SYSTEMATIC_NAME>
4-[7-[bis(2-trimethylsilylethoxymethyl)amino]-6-iodanyl-3-(1-phenylpyrazol-4-yl)pyrazolo[1,5-a]pyrimidin-5-yl]-N-methanoyl-1-(2-methoxyethoxy)cyclohexane-1-carboxamide;diazane;5-[4-(2-methoxyethoxy)-4-(1H-1,2,4-triazol-5-yl)cyclohexyl]-3-(1-phenylpyrazol-4-yl)pyrazolo[1,5-a]pyrimidin-7-amine

> <PUBCHEM_IUPAC_TRADITIONAL_NAME>
4-[7-[bis(2-trimethylsilylethoxymethyl)amino]-6-iodo-3-(1-phenylpyrazol-4-yl)pyrazolo[1,5-a]pyrimidin-5-yl]-N-formyl-1-(2-methoxyethoxy)cyclohexanecarboxamide;hydrazine;[5-[4-(2-methoxyethoxy)-4-(1H-1,2,4-triazol-5-yl)cyclohexyl]-3-(1-phenylpyrazol-4-yl)pyrazolo[1,5-a]pyrimidin-7-yl]amine

> <PUBCHEM_IUPAC_INCHI>
InChI=1S/C38H56IN7O6Si2.C26H29N9O2.H4N2/c1-49-17-18-52-38(37(48)40-26-47)15-13-29(14-16-38)34-33(39)36(44(27-50-19-21-53(2,3)4)28-51-20-22-54(5,6)7)46-35(43-34)32(24-42-46)30-23-41-45(25-30)31-11-9-8-10-12-31;1-36-11-12-37-26(25-28-17-29-33-25)9-7-18(8-10-26)22-13-23(27)35-24(32-22)21(15-31-35)19-14-30-34(16-19)20-5-3-2-4-6-20;1-2/h8-12,23-26,29H,13-22,27-28H2,1-7H3,(H,40,47,48);2-6,13-18H,7-12,27H2,1H3,(H,28,29,33);1-2H2

> <PUBCHEM_IUPAC_INCHIKEY>
VVAHQFAMPLBWOS-UHFFFAOYSA-N

> <PUBCHEM_EXACT_MASS>
1420.56940

> <PUBCHEM_MOLECULAR_FORMULA>
C64H89IN18O8Si2

> <PUBCHEM_MOLECULAR_WEIGHT>
1421.6

> <PUBCHEM_SMILES>
COCCOC1(CCC(CC1)C2=NC3=C(C=NN3C(=C2)N)C4=CN(N=C4)C5=CC=CC=C5)C6=NC=NN6.COCCOC1(CCC(CC1)C2=NC3=C(C=NN3C(=C2I)N(COCC[Si](C)(C)C)COCC[Si](C)(C)C)C4=CN(N=C4)C5=CC=CC=C5)C(=O)NC=O.NN

> <PUBCHEM_CONNECTIVITY_SMILES>
COCCOC1(CCC(CC1)C2=NC3=C(C=NN3C(=C2)N)C4=CN(N=C4)C5=CC=CC=C5)C6=NC=NN6.COCCOC1(CCC(CC1)C2=NC3=C(C=NN3C(=C2I)N(COCC[Si](C)(C)C)COCC[Si](C)(C)C)C4=CN(N=C4)C5=CC=CC=C5)C(=O)NC=O.NN

> <PUBCHEM_CACTVS_TPSA>
320

> <PUBCHEM_MONOISOTOPIC_WEIGHT>
1420.56940

> <PUBCHEM_TOTAL_CHARGE>
0

> <PUBCHEM_HEAVY_ATOM_COUNT>
93

> <PUBCHEM_ATOM_DEF_STEREO_COUNT>
0

> <PUBCHEM_ATOM_UDEF_STEREO_COUNT>
0

> <PUBCHEM_BOND_DEF_STEREO_COUNT>
0

> <PUBCHEM_BOND_UDEF_STEREO_COUNT>
0

> <PUBCHEM_ISOTOPIC_ATOM_COUNT>
0

> <PUBCHEM_COMPONENT_COUNT>
3

> <PUBCHEM_CACTVS_TAUTO_COUNT>
-1

> <PUBCHEM_COORDINATE_TYPE>
1
5
255

> <PUBCHEM_BONDANNOTATIONS>
12  19  8
12  42  8
13  43  8
13  52  8
14  42  8
14  55  8
15  44  8
15  51  8
17  21  8
17  50  8
17  51  8
18  22  8
18  52  8
18  53  8
19  55  8
21  60  8
22  61  8
24  26  8
24  67  8
25  27  8
25  68  8
26  69  8
27  70  8
43  47  8
44  48  8
47  53  8
48  50  8
51  57  8
52  58  8
57  60  8
58  61  8
64  67  8
64  69  8
65  68  8
65  70  8
82  84  8
82  85  8
83  86  8
83  87  8
84  88  8
85  89  8
86  90  8
87  91  8
88  92  8
89  92  8
90  93  8
91  93  8

$$$$
