5328536
  -OEChem-01202622332D

 26 27  0     1  0  0  0  0  0999 V2000
    6.2619   -0.6423    0.0000 S   0  0  0  0  0  0  0  0  0  0  0  0
    6.2781    2.2697    0.0000 O   0  0  0  0  0  0  0  0  0  0  0  0
    6.6353    0.5749    0.0000 O   0  0  0  0  0  0  0  0  0  0  0  0
    4.6783   -1.4470    0.0000 N   0  0  0  0  0  0  0  0  0  0  0  0
    4.6783    0.1624    0.0000 C   0  0  3  0  0  0  0  0  0  0  0  0
    3.7320   -0.1423    0.0000 C   0  0  0  0  0  0  0  0  0  0  0  0
    3.7320   -1.1423    0.0000 C   0  0  0  0  0  0  0  0  0  0  0  0
    5.2619   -0.6423    0.0000 C   0  0  0  0  0  0  0  0  0  0  0  0
    4.9889    1.1130    0.0000 C   0  0  0  0  0  0  0  0  0  0  0  0
    2.8660    0.3577    0.0000 C   0  0  0  0  0  0  0  0  0  0  0  0
    2.8660   -1.6423    0.0000 C   0  0  0  0  0  0  0  0  0  0  0  0
    4.9889   -2.3976    0.0000 C   0  0  0  0  0  0  0  0  0  0  0  0
    2.0000   -0.1423    0.0000 C   0  0  0  0  0  0  0  0  0  0  0  0
    2.0000   -1.1423    0.0000 C   0  0  0  0  0  0  0  0  0  0  0  0
    5.9674    1.3192    0.0000 C   0  0  0  0  0  0  0  0  0  0  0  0
    5.2908    0.2586    0.0000 H   0  0  0  0  0  0  0  0  0  0  0  0
    4.9684    1.7326    0.0000 H   0  0  0  0  0  0  0  0  0  0  0  0
    4.3751    1.2003    0.0000 H   0  0  0  0  0  0  0  0  0  0  0  0
    2.8660    0.9777    0.0000 H   0  0  0  0  0  0  0  0  0  0  0  0
    2.8660   -2.2623    0.0000 H   0  0  0  0  0  0  0  0  0  0  0  0
    4.3996   -2.5902    0.0000 H   0  0  0  0  0  0  0  0  0  0  0  0
    5.1815   -2.9869    0.0000 H   0  0  0  0  0  0  0  0  0  0  0  0
    5.5783   -2.2049    0.0000 H   0  0  0  0  0  0  0  0  0  0  0  0
    1.4631    0.1677    0.0000 H   0  0  0  0  0  0  0  0  0  0  0  0
    1.4631   -1.4523    0.0000 H   0  0  0  0  0  0  0  0  0  0  0  0
    6.8848    2.3976    0.0000 H   0  0  0  0  0  0  0  0  0  0  0  0
  1  8  2  0  0  0  0
  2 15  1  0  0  0  0
  2 26  1  0  0  0  0
  3 15  2  0  0  0  0
  4  7  1  0  0  0  0
  4  8  1  0  0  0  0
  4 12  1  0  0  0  0
  5  6  1  0  0  0  0
  5  8  1  0  0  0  0
  5  9  1  0  0  0  0
  5 16  1  0  0  0  0
  6  7  1  0  0  0  0
  6 10  2  0  0  0  0
  7 11  2  0  0  0  0
  9 15  1  0  0  0  0
  9 17  1  0  0  0  0
  9 18  1  0  0  0  0
 10 13  1  0  0  0  0
 10 19  1  0  0  0  0
 11 14  1  0  0  0  0
 11 20  1  0  0  0  0
 12 21  1  0  0  0  0
 12 22  1  0  0  0  0
 12 23  1  0  0  0  0
 13 14  2  0  0  0  0
 13 24  1  0  0  0  0
 14 25  1  0  0  0  0
M  END
> <PUBCHEM_COMPOUND_CID>
5328536

> <PUBCHEM_COMPOUND_CANONICALIZED>
1

> <PUBCHEM_CACTVS_COMPLEXITY>
292

> <PUBCHEM_CACTVS_HBOND_ACCEPTOR>
3

> <PUBCHEM_CACTVS_HBOND_DONOR>
1

> <PUBCHEM_CACTVS_ROTATABLE_BOND>
2

> <PUBCHEM_CACTVS_SUBSKEYS>
AAADccByMABAAAAAAAAAAAAAAAAAAWAAAAAwAAAAAAAAAFgBAAAAHgQACAAADQiB2AQyyIMAAgCMAiTSSACCAAAhAggIiAEIZIgIIDLAkZGEYAhkgADIyAe82eOegAAAAAACAAAAAAAAAAQAAAAAAAAAAA==

> <PUBCHEM_IUPAC_OPENEYE_NAME>
2-(1-methyl-2-thioxo-indolin-3-yl)acetic acid

> <PUBCHEM_IUPAC_CAS_NAME>
2-(1-methyl-2-sulfanylidene-3H-indol-3-yl)acetic acid

> <PUBCHEM_IUPAC_NAME_MARKUP>
2-(1-methyl-2-sulfanylidene-3<I>H</I>-indol-3-yl)acetic acid

> <PUBCHEM_IUPAC_NAME>
2-(1-methyl-2-sulfanylidene-3H-indol-3-yl)acetic acid

> <PUBCHEM_IUPAC_SYSTEMATIC_NAME>
2-(1-methyl-2-sulfanylidene-3H-indol-3-yl)ethanoic acid

> <PUBCHEM_IUPAC_TRADITIONAL_NAME>
2-(1-methyl-2-thioxo-indolin-3-yl)acetic acid

> <PUBCHEM_IUPAC_INCHI>
InChI=1S/C11H11NO2S/c1-12-9-5-3-2-4-7(9)8(11(12)15)6-10(13)14/h2-5,8H,6H2,1H3,(H,13,14)

> <PUBCHEM_IUPAC_INCHIKEY>
MGQMNRPORBTSDW-UHFFFAOYSA-N

> <PUBCHEM_XLOGP3_AA>
1.1

> <PUBCHEM_EXACT_MASS>
221.05104977

> <PUBCHEM_MOLECULAR_FORMULA>
C11H11NO2S

> <PUBCHEM_MOLECULAR_WEIGHT>
221.28

> <PUBCHEM_SMILES>
CN1C2=CC=CC=C2C(C1=S)CC(=O)O

> <PUBCHEM_CONNECTIVITY_SMILES>
CN1C2=CC=CC=C2C(C1=S)CC(=O)O

> <PUBCHEM_CACTVS_TPSA>
72.6

> <PUBCHEM_MONOISOTOPIC_WEIGHT>
221.05104977

> <PUBCHEM_TOTAL_CHARGE>
0

> <PUBCHEM_HEAVY_ATOM_COUNT>
15

> <PUBCHEM_ATOM_DEF_STEREO_COUNT>
0

> <PUBCHEM_ATOM_UDEF_STEREO_COUNT>
1

> <PUBCHEM_BOND_DEF_STEREO_COUNT>
0

> <PUBCHEM_BOND_UDEF_STEREO_COUNT>
0

> <PUBCHEM_ISOTOPIC_ATOM_COUNT>
0

> <PUBCHEM_COMPONENT_COUNT>
1

> <PUBCHEM_CACTVS_TAUTO_COUNT>
-1

> <PUBCHEM_COORDINATE_TYPE>
1
5
255

> <PUBCHEM_BONDANNOTATIONS>
10  13  8
11  14  8
13  14  8
5  9  3
6  10  8
6  7  8
7  11  8

$$$$
