101394490
  -OEChem-01202614002D

108116  0     1  0  0  0  0  0999 V2000
   12.1677    1.1230    0.0000 O   0  0  0  0  0  0  0  0  0  0  0  0
   14.4482    3.1764    0.0000 O   0  0  0  0  0  0  0  0  0  0  0  0
   10.3312    1.1176    0.0000 O   0  0  0  0  0  0  0  0  0  0  0  0
    8.5991    1.1176    0.0000 O   0  0  0  0  0  0  0  0  0  0  0  0
   10.3312   -0.8824    0.0000 O   0  0  0  0  0  0  0  0  0  0  0  0
    9.4651   -2.3824    0.0000 O   0  0  0  0  0  0  0  0  0  0  0  0
    8.5991   -1.8824    0.0000 O   0  0  0  0  0  0  0  0  0  0  0  0
   10.1220    5.0894    0.0000 O   0  0  0  0  0  0  0  0  0  0  0  0
    6.0010    0.6176    0.0000 O   0  0  0  0  0  0  0  0  0  0  0  0
    6.8671   -0.8824    0.0000 O   0  0  0  0  0  0  0  0  0  0  0  0
    8.7281    4.2847    0.0000 O   0  0  0  0  0  0  0  0  0  0  0  0
   18.0976    1.9987    0.0000 O   0  0  0  0  0  0  0  0  0  0  0  0
   18.1004    0.3892    0.0000 O   0  0  0  0  0  0  0  0  0  0  0  0
    5.1350    2.1176    0.0000 O   0  0  0  0  0  0  0  0  0  0  0  0
   12.0632   -1.8824    0.0000 O   0  0  0  0  0  0  0  0  0  0  0  0
   12.0632   -3.8824    0.0000 O   0  0  0  0  0  0  0  0  0  0  0  0
   10.3312   -4.8824    0.0000 O   0  0  0  0  0  0  0  0  0  0  0  0
    4.2690   -0.3824    0.0000 O   0  0  0  0  0  0  0  0  0  0  0  0
    2.5369    0.6176    0.0000 O   0  0  0  0  0  0  0  0  0  0  0  0
    2.5369    2.6176    0.0000 O   0  0  0  0  0  0  0  0  0  0  0  0
    8.5991   -4.8824    0.0000 O   0  0  0  0  0  0  0  0  0  0  0  0
    3.4030    4.1176    0.0000 O   0  0  0  0  0  0  0  0  0  0  0  0
   12.9768    2.5243    0.0000 C   0  0  1  0  0  0  0  0  0  0  0  0
   13.6459    1.7812    0.0000 C   0  0  1  0  0  0  0  0  0  0  0  0
   12.0632    2.1176    0.0000 C   0  0  1  0  0  0  0  0  0  0  0  0
   14.5530    2.1878    0.0000 C   0  0  1  0  0  0  0  0  0  0  0  0
   13.1459    0.9151    0.0000 C   0  0  0  0  0  0  0  0  0  0  0  0
   13.4760    3.3839    0.0000 C   0  0  0  0  0  0  0  0  0  0  0  0
   11.1972    2.6176    0.0000 C   0  0  0  0  0  0  0  0  0  0  0  0
   15.4199    1.6893    0.0000 C   0  0  0  0  0  0  0  0  0  0  0  0
   10.3312    2.1176    0.0000 C   0  0  0  0  0  0  0  0  0  0  0  0
   11.1972    3.6176    0.0000 C   0  0  0  0  0  0  0  0  0  0  0  0
    9.4651   -0.3824    0.0000 C   0  0  1  0  0  0  0  0  0  0  0  0
    9.4651    0.6176    0.0000 C   0  0  2  0  0  0  0  0  0  0  0  0
   16.2850    2.1908    0.0000 C   0  0  0  0  0  0  0  0  0  0  0  0
   15.4216    0.6893    0.0000 C   0  0  0  0  0  0  0  0  0  0  0  0
    8.5991   -0.8824    0.0000 C   0  0  2  0  0  0  0  0  0  0  0  0
    7.7331   -0.3824    0.0000 C   0  0  1  0  0  0  0  0  0  0  0  0
    7.7331    0.6176    0.0000 C   0  0  1  0  0  0  0  0  0  0  0  0
    9.4651    2.6176    0.0000 C   0  0  0  0  0  0  0  0  0  0  0  0
   10.3312    4.1176    0.0000 C   0  0  0  0  0  0  0  0  0  0  0  0
   10.3312   -1.8824    0.0000 C   0  0  2  0  0  0  0  0  0  0  0  0
    9.4651    3.6176    0.0000 C   0  0  0  0  0  0  0  0  0  0  0  0
   17.1519    1.6923    0.0000 C   0  0  0  0  0  0  0  0  0  0  0  0
   16.2885    0.1908    0.0000 C   0  0  0  0  0  0  0  0  0  0  0  0
    6.8671    1.1176    0.0000 C   0  0  0  0  0  0  0  0  0  0  0  0
   11.1972   -2.3824    0.0000 C   0  0  1  0  0  0  0  0  0  0  0  0
   11.1972   -3.3824    0.0000 C   0  0  2  0  0  0  0  0  0  0  0  0
   17.1536    0.6923    0.0000 C   0  0  0  0  0  0  0  0  0  0  0  0
   10.3312   -3.8824    0.0000 C   0  0  1  0  0  0  0  0  0  0  0  0
    9.4651   -3.3824    0.0000 C   0  0  1  0  0  0  0  0  0  0  0  0
    5.1350    1.1176    0.0000 C   0  0  2  0  0  0  0  0  0  0  0  0
    4.2690    0.6176    0.0000 C   0  0  1  0  0  0  0  0  0  0  0  0
    3.4030    1.1176    0.0000 C   0  0  2  0  0  0  0  0  0  0  0  0
    3.4030    2.1176    0.0000 C   0  0  1  0  0  0  0  0  0  0  0  0
    4.2690    2.6176    0.0000 C   0  0  1  0  0  0  0  0  0  0  0  0
    9.1332    5.1924    0.0000 C   0  0  0  0  0  0  0  0  0  0  0  0
    8.5991   -3.8824    0.0000 C   0  0  0  0  0  0  0  0  0  0  0  0
   18.6826    1.1950    0.0000 C   0  0  0  0  0  0  0  0  0  0  0  0
    4.2690    3.6176    0.0000 C   0  0  0  0  0  0  0  0  0  0  0  0
   12.4088    3.1567    0.0000 H   0  0  0  0  0  0  0  0  0  0  0  0
   14.2155    1.1502    0.0000 H   0  0  0  0  0  0  0  0  0  0  0  0
   11.3503    1.6546    0.0000 H   0  0  0  0  0  0  0  0  0  0  0  0
   15.0725    2.5262    0.0000 H   0  0  0  0  0  0  0  0  0  0  0  0
   12.9543    0.3255    0.0000 H   0  0  0  0  0  0  0  0  0  0  0  0
   13.7123    0.6630    0.0000 H   0  0  0  0  0  0  0  0  0  0  0  0
   13.6685    3.9733    0.0000 H   0  0  0  0  0  0  0  0  0  0  0  0
   12.9101    3.6372    0.0000 H   0  0  0  0  0  0  0  0  0  0  0  0
   11.7341    3.9276    0.0000 H   0  0  0  0  0  0  0  0  0  0  0  0
   10.0021   -0.0724    0.0000 H   0  0  0  0  0  0  0  0  0  0  0  0
    9.4651    1.2376    0.0000 H   0  0  0  0  0  0  0  0  0  0  0  0
   16.2839    2.8108    0.0000 H   0  0  0  0  0  0  0  0  0  0  0  0
    8.0622   -1.1924    0.0000 H   0  0  0  0  0  0  0  0  0  0  0  0
   14.8852    0.3784    0.0000 H   0  0  0  0  0  0  0  0  0  0  0  0
    7.1962   -0.0724    0.0000 H   0  0  0  0  0  0  0  0  0  0  0  0
    7.7331    1.2376    0.0000 H   0  0  0  0  0  0  0  0  0  0  0  0
    8.9282    2.3076    0.0000 H   0  0  0  0  0  0  0  0  0  0  0  0
    9.7942   -1.5724    0.0000 H   0  0  0  0  0  0  0  0  0  0  0  0
    7.2656    1.5925    0.0000 H   0  0  0  0  0  0  0  0  0  0  0  0
    6.4685    1.5925    0.0000 H   0  0  0  0  0  0  0  0  0  0  0  0
   11.7341   -2.6924    0.0000 H   0  0  0  0  0  0  0  0  0  0  0  0
   16.2896   -0.4292    0.0000 H   0  0  0  0  0  0  0  0  0  0  0  0
   11.1972   -4.0024    0.0000 H   0  0  0  0  0  0  0  0  0  0  0  0
    9.7942   -4.1924    0.0000 H   0  0  0  0  0  0  0  0  0  0  0  0
    8.9282   -3.0724    0.0000 H   0  0  0  0  0  0  0  0  0  0  0  0
    5.1350    0.4976    0.0000 H   0  0  0  0  0  0  0  0  0  0  0  0
    3.7321    0.3076    0.0000 H   0  0  0  0  0  0  0  0  0  0  0  0
    8.0622   -2.1924    0.0000 H   0  0  0  0  0  0  0  0  0  0  0  0
    2.8660    1.4276    0.0000 H   0  0  0  0  0  0  0  0  0  0  0  0
    6.8671   -1.5024    0.0000 H   0  0  0  0  0  0  0  0  0  0  0  0
    3.4030    2.7376    0.0000 H   0  0  0  0  0  0  0  0  0  0  0  0
    4.8059    2.9276    0.0000 H   0  0  0  0  0  0  0  0  0  0  0  0
    9.2620    5.7989    0.0000 H   0  0  0  0  0  0  0  0  0  0  0  0
    8.5436    5.3842    0.0000 H   0  0  0  0  0  0  0  0  0  0  0  0
    8.3871   -3.2998    0.0000 H   0  0  0  0  0  0  0  0  0  0  0  0
    7.9885   -3.9901    0.0000 H   0  0  0  0  0  0  0  0  0  0  0  0
   19.1442    0.7811    0.0000 H   0  0  0  0  0  0  0  0  0  0  0  0
   19.1428    1.6105    0.0000 H   0  0  0  0  0  0  0  0  0  0  0  0
   12.0632   -1.2624    0.0000 H   0  0  0  0  0  0  0  0  0  0  0  0
   12.6002   -3.5724    0.0000 H   0  0  0  0  0  0  0  0  0  0  0  0
   10.8681   -5.1924    0.0000 H   0  0  0  0  0  0  0  0  0  0  0  0
    4.8796    3.5099    0.0000 H   0  0  0  0  0  0  0  0  0  0  0  0
    4.4810    4.2002    0.0000 H   0  0  0  0  0  0  0  0  0  0  0  0
    3.7321   -0.6924    0.0000 H   0  0  0  0  0  0  0  0  0  0  0  0
    2.0000    0.9276    0.0000 H   0  0  0  0  0  0  0  0  0  0  0  0
    2.0000    2.3076    0.0000 H   0  0  0  0  0  0  0  0  0  0  0  0
    8.0622   -5.1924    0.0000 H   0  0  0  0  0  0  0  0  0  0  0  0
    3.4030    4.7376    0.0000 H   0  0  0  0  0  0  0  0  0  0  0  0
  1 25  1  0  0  0  0
  1 27  1  0  0  0  0
  2 26  1  0  0  0  0
  2 28  1  0  0  0  0
  3 31  1  0  0  0  0
 34  3  1  1  0  0  0
  4 34  1  0  0  0  0
  4 39  1  0  0  0  0
 33  5  1  6  0  0  0
 42  5  1  1  0  0  0
  6 42  1  0  0  0  0
  6 51  1  0  0  0  0
 37  7  1  1  0  0  0
  7 88  1  0  0  0  0
  8 41  1  0  0  0  0
  8 57  1  0  0  0  0
  9 46  1  0  0  0  0
 52  9  1  1  0  0  0
 38 10  1  6  0  0  0
 10 90  1  0  0  0  0
 11 43  1  0  0  0  0
 11 57  1  0  0  0  0
 12 44  1  0  0  0  0
 12 59  1  0  0  0  0
 13 49  1  0  0  0  0
 13 59  1  0  0  0  0
 14 52  1  0  0  0  0
 14 56  1  0  0  0  0
 47 15  1  6  0  0  0
 15 99  1  0  0  0  0
 48 16  1  1  0  0  0
 16100  1  0  0  0  0
 50 17  1  6  0  0  0
 17101  1  0  0  0  0
 53 18  1  6  0  0  0
 18104  1  0  0  0  0
 54 19  1  1  0  0  0
 19105  1  0  0  0  0
 55 20  1  6  0  0  0
 20106  1  0  0  0  0
 21 58  1  0  0  0  0
 21107  1  0  0  0  0
 22 60  1  0  0  0  0
 22108  1  0  0  0  0
 23 24  1  0  0  0  0
 23 25  1  0  0  0  0
 23 28  1  0  0  0  0
 23 61  1  6  0  0  0
 24 26  1  0  0  0  0
 24 27  1  0  0  0  0
 24 62  1  6  0  0  0
 25 29  1  0  0  0  0
 25 63  1  1  0  0  0
 26 30  1  6  0  0  0
 26 64  1  0  0  0  0
 27 65  1  0  0  0  0
 27 66  1  0  0  0  0
 28 67  1  0  0  0  0
 28 68  1  0  0  0  0
 29 31  1  0  0  0  0
 29 32  2  0  0  0  0
 30 35  2  0  0  0  0
 30 36  1  0  0  0  0
 31 40  2  0  0  0  0
 32 41  1  0  0  0  0
 32 69  1  0  0  0  0
 33 34  1  0  0  0  0
 33 37  1  0  0  0  0
 33 70  1  0  0  0  0
 34 71  1  0  0  0  0
 35 44  1  0  0  0  0
 35 72  1  0  0  0  0
 36 45  2  0  0  0  0
 36 74  1  0  0  0  0
 37 38  1  0  0  0  0
 37 73  1  0  0  0  0
 38 39  1  0  0  0  0
 38 75  1  0  0  0  0
 39 46  1  1  0  0  0
 39 76  1  0  0  0  0
 40 43  1  0  0  0  0
 40 77  1  0  0  0  0
 41 43  2  0  0  0  0
 42 47  1  0  0  0  0
 42 78  1  0  0  0  0
 44 49  2  0  0  0  0
 45 49  1  0  0  0  0
 45 82  1  0  0  0  0
 46 79  1  0  0  0  0
 46 80  1  0  0  0  0
 47 48  1  0  0  0  0
 47 81  1  0  0  0  0
 48 50  1  0  0  0  0
 48 83  1  0  0  0  0
 50 51  1  0  0  0  0
 50 84  1  0  0  0  0
 51 58  1  1  0  0  0
 51 85  1  0  0  0  0
 52 53  1  0  0  0  0
 52 86  1  0  0  0  0
 53 54  1  0  0  0  0
 53 87  1  0  0  0  0
 54 55  1  0  0  0  0
 54 89  1  0  0  0  0
 55 56  1  0  0  0  0
 55 91  1  0  0  0  0
 56 60  1  1  0  0  0
 56 92  1  0  0  0  0
 57 93  1  0  0  0  0
 57 94  1  0  0  0  0
 58 95  1  0  0  0  0
 58 96  1  0  0  0  0
 59 97  1  0  0  0  0
 59 98  1  0  0  0  0
 60102  1  0  0  0  0
 60103  1  0  0  0  0
M  END
> <PUBCHEM_COMPOUND_CID>
101394490

> <PUBCHEM_COMPOUND_CANONICALIZED>
1

> <PUBCHEM_CACTVS_COMPLEXITY>
1420

> <PUBCHEM_CACTVS_HBOND_ACCEPTOR>
22

> <PUBCHEM_CACTVS_HBOND_DONOR>
10

> <PUBCHEM_CACTVS_ROTATABLE_BOND>
11

> <PUBCHEM_CACTVS_SUBSKEYS>
AAADcfB8PgAAAAAAAAAAAAAAAAAAASJEiQA0aJECAAASAEgBQAAAGgAACAAADRSwmAMwDoAABgCAAiBCAAACCAAgIAAIiAAGiIgdNyKEMRqieCKlwBUPqAfA4PwOoQABCAAIQABCAAIQABCAAAAAAAAAAA==

> <PUBCHEM_IUPAC_OPENEYE_NAME>
(2R,3R,4S,5S,6R)-2-[[(2R,3S,4S,5R,6S)-6-[[6-[(3S,3aR,6S,6aR)-3-(1,3-benzodioxol-5-yl)-1,3,3a,4,6,6a-hexahydrofuro[3,4-c]furan-6-yl]-1,3-benzodioxol-5-yl]oxy]-3,4-dihydroxy-5-[(2S,3R,4S,5S,6R)-3,4,5-trihydroxy-6-(hydroxymethyl)tetrahydropyran-2-yl]oxy-tetrahydropyran-2-yl]methoxy]-6-(hydroxymethyl)tetrahydropyran-3,4,5-triol

> <PUBCHEM_IUPAC_CAS_NAME>
(2R,3R,4S,5S,6R)-2-[[(2R,3S,4S,5R,6S)-6-[[6-[(3S,3aR,6S,6aR)-3-(1,3-benzodioxol-5-yl)-1,3,3a,4,6,6a-hexahydrofuro[3,4-c]furan-6-yl]-1,3-benzodioxol-5-yl]oxy]-3,4-dihydroxy-5-[[(2S,3R,4S,5S,6R)-3,4,5-trihydroxy-6-(hydroxymethyl)-2-oxanyl]oxy]-2-oxanyl]methoxy]-6-(hydroxymethyl)oxane-3,4,5-triol

> <PUBCHEM_IUPAC_NAME_MARKUP>
(2<I>R</I>,3<I>R</I>,4<I>S</I>,5<I>S</I>,6<I>R</I>)-2-[[(2<I>R</I>,3<I>S</I>,4<I>S</I>,5<I>R</I>,6<I>S</I>)-6-[[6-[(3<I>S</I>,3<I>a</I><I>R</I>,6<I>S</I>,6<I>a</I><I>R</I>)-3-(1,3-benzodioxol-5-yl)-1,3,3<I>a</I>,4,6,6<I>a</I>-hexahydrofuro[3,4-c]furan-6-yl]-1,3-benzodioxol-5-yl]oxy]-3,4-dihydroxy-5-[(2<I>S</I>,3<I>R</I>,4<I>S</I>,5<I>S</I>,6<I>R</I>)-3,4,5-trihydroxy-6-(hydroxymethyl)oxan-2-yl]oxyoxan-2-yl]methoxy]-6-(hydroxymethyl)oxane-3,4,5-triol

> <PUBCHEM_IUPAC_NAME>
(2R,3R,4S,5S,6R)-2-[[(2R,3S,4S,5R,6S)-6-[[6-[(3S,3aR,6S,6aR)-3-(1,3-benzodioxol-5-yl)-1,3,3a,4,6,6a-hexahydrofuro[3,4-c]furan-6-yl]-1,3-benzodioxol-5-yl]oxy]-3,4-dihydroxy-5-[(2S,3R,4S,5S,6R)-3,4,5-trihydroxy-6-(hydroxymethyl)oxan-2-yl]oxyoxan-2-yl]methoxy]-6-(hydroxymethyl)oxane-3,4,5-triol

> <PUBCHEM_IUPAC_SYSTEMATIC_NAME>
(2R,3R,4S,5S,6R)-2-[[(2R,3S,4S,5R,6S)-6-[[6-[(3S,3aR,6S,6aR)-3-(1,3-benzodioxol-5-yl)-1,3,3a,4,6,6a-hexahydrofuro[3,4-c]furan-6-yl]-1,3-benzodioxol-5-yl]oxy]-5-[(2S,3R,4S,5S,6R)-6-(hydroxymethyl)-3,4,5-tris(oxidanyl)oxan-2-yl]oxy-3,4-bis(oxidanyl)oxan-2-yl]methoxy]-6-(hydroxymethyl)oxane-3,4,5-triol

> <PUBCHEM_IUPAC_TRADITIONAL_NAME>
(2R,3R,4S,5S,6R)-2-[[(2R,3S,4S,5R,6S)-6-[[6-[(3S,3aR,6S,6aR)-3-(1,3-benzodioxol-5-yl)-1,3,3a,4,6,6a-hexahydrofuro[3,4-c]furan-6-yl]-1,3-benzodioxol-5-yl]oxy]-3,4-dihydroxy-5-[(2S,3R,4S,5S,6R)-3,4,5-trihydroxy-6-methylol-tetrahydropyran-2-yl]oxy-tetrahydropyran-2-yl]methoxy]-6-methylol-tetrahydropyran-3,4,5-triol

> <PUBCHEM_IUPAC_INCHI>
InChI=1S/C38H48O22/c39-6-22-25(41)28(44)31(47)36(57-22)51-10-24-27(43)30(46)35(60-37-32(48)29(45)26(42)23(7-40)58-37)38(59-24)56-18-5-21-20(54-12-55-21)4-14(18)34-16-9-49-33(15(16)8-50-34)13-1-2-17-19(3-13)53-11-52-17/h1-5,15-16,22-48H,6-12H2/t15-,16-,22+,23+,24+,25+,26+,27+,28-,29-,30-,31+,32+,33+,34+,35+,36+,37-,38+/m0/s1

> <PUBCHEM_IUPAC_INCHIKEY>
IJZGFTCXUSMUHI-CMBLSTHZSA-N

> <PUBCHEM_XLOGP3_AA>
-3.2

> <PUBCHEM_EXACT_MASS>
856.26372315

> <PUBCHEM_MOLECULAR_FORMULA>
C38H48O22

> <PUBCHEM_MOLECULAR_WEIGHT>
856.8

> <PUBCHEM_SMILES>
C1[C@H]2[C@H](CO[C@@H]2C3=CC4=C(C=C3O[C@H]5[C@@H]([C@H]([C@@H]([C@H](O5)CO[C@H]6[C@@H]([C@H]([C@@H]([C@H](O6)CO)O)O)O)O)O)O[C@H]7[C@@H]([C@H]([C@@H]([C@H](O7)CO)O)O)O)OCO4)[C@H](O1)C8=CC9=C(C=C8)OCO9

> <PUBCHEM_CONNECTIVITY_SMILES>
C1C2C(COC2C3=CC4=C(C=C3OC5C(C(C(C(O5)COC6C(C(C(C(O6)CO)O)O)O)O)O)OC7C(C(C(C(O7)CO)O)O)O)OCO4)C(O1)C8=CC9=C(C=C8)OCO9

> <PUBCHEM_CACTVS_TPSA>
313

> <PUBCHEM_MONOISOTOPIC_WEIGHT>
856.26372315

> <PUBCHEM_TOTAL_CHARGE>
0

> <PUBCHEM_HEAVY_ATOM_COUNT>
60

> <PUBCHEM_ATOM_DEF_STEREO_COUNT>
19

> <PUBCHEM_ATOM_UDEF_STEREO_COUNT>
0

> <PUBCHEM_BOND_DEF_STEREO_COUNT>
0

> <PUBCHEM_BOND_UDEF_STEREO_COUNT>
0

> <PUBCHEM_ISOTOPIC_ATOM_COUNT>
0

> <PUBCHEM_COMPONENT_COUNT>
1

> <PUBCHEM_CACTVS_TAUTO_COUNT>
-1

> <PUBCHEM_COORDINATE_TYPE>
1
5
255

> <PUBCHEM_BONDANNOTATIONS>
38  10  6
47  15  6
48  16  5
50  17  6
53  18  6
54  19  5
55  20  6
23  61  6
24  62  6
25  63  5
26  30  6
29  31  8
29  32  8
34  3  5
30  35  8
30  36  8
31  40  8
32  41  8
35  44  8
36  45  8
39  46  5
40  43  8
41  43  8
44  49  8
45  49  8
33  5  6
42  5  5
51  58  5
56  60  5
37  7  5
52  9  5

$$$$
