70686443
  -OEChem-01202622392D

 66 72  0     1  0  0  0  0  0999 V2000
    8.7036   -0.3770    0.0000 O   0  0  0  0  0  0  0  0  0  0  0  0
   10.9841    1.6764    0.0000 O   0  0  0  0  0  0  0  0  0  0  0  0
    6.8671   -0.3824    0.0000 O   0  0  0  0  0  0  0  0  0  0  0  0
    5.1350   -0.3824    0.0000 O   0  0  0  0  0  0  0  0  0  0  0  0
    6.6579    3.5894    0.0000 O   0  0  0  0  0  0  0  0  0  0  0  0
    5.2640    2.7846    0.0000 O   0  0  0  0  0  0  0  0  0  0  0  0
    6.8671   -2.3824    0.0000 O   0  0  0  0  0  0  0  0  0  0  0  0
    5.1350   -3.3824    0.0000 O   0  0  0  0  0  0  0  0  0  0  0  0
   14.6335    0.4987    0.0000 O   0  0  0  0  0  0  0  0  0  0  0  0
    3.4030   -2.3824    0.0000 O   0  0  0  0  0  0  0  0  0  0  0  0
   14.6363   -1.1108    0.0000 O   0  0  0  0  0  0  0  0  0  0  0  0
    2.5369   -0.8824    0.0000 O   0  0  0  0  0  0  0  0  0  0  0  0
    9.5127    1.0243    0.0000 C   0  0  1  0  0  0  0  0  0  0  0  0
   10.1818    0.2812    0.0000 C   0  0  1  0  0  0  0  0  0  0  0  0
    8.5991    0.6176    0.0000 C   0  0  1  0  0  0  0  0  0  0  0  0
   11.0889    0.6878    0.0000 C   0  0  1  0  0  0  0  0  0  0  0  0
    9.6818   -0.5849    0.0000 C   0  0  0  0  0  0  0  0  0  0  0  0
   10.0119    1.8839    0.0000 C   0  0  0  0  0  0  0  0  0  0  0  0
    7.7331    1.1176    0.0000 C   0  0  0  0  0  0  0  0  0  0  0  0
   11.9558    0.1893    0.0000 C   0  0  0  0  0  0  0  0  0  0  0  0
    6.8671    0.6176    0.0000 C   0  0  0  0  0  0  0  0  0  0  0  0
    7.7331    2.1176    0.0000 C   0  0  0  0  0  0  0  0  0  0  0  0
   12.8209    0.6908    0.0000 C   0  0  0  0  0  0  0  0  0  0  0  0
   11.9575   -0.8107    0.0000 C   0  0  0  0  0  0  0  0  0  0  0  0
    6.0010   -0.8824    0.0000 C   0  0  2  0  0  0  0  0  0  0  0  0
    6.0010   -1.8824    0.0000 C   0  0  1  0  0  0  0  0  0  0  0  0
    5.1350   -2.3824    0.0000 C   0  0  2  0  0  0  0  0  0  0  0  0
    4.2690   -1.8824    0.0000 C   0  0  1  0  0  0  0  0  0  0  0  0
    6.0010    1.1176    0.0000 C   0  0  0  0  0  0  0  0  0  0  0  0
    6.8671    2.6176    0.0000 C   0  0  0  0  0  0  0  0  0  0  0  0
    4.2690   -0.8824    0.0000 C   0  0  1  0  0  0  0  0  0  0  0  0
    6.0010    2.1176    0.0000 C   0  0  0  0  0  0  0  0  0  0  0  0
   13.6878    0.1923    0.0000 C   0  0  0  0  0  0  0  0  0  0  0  0
   12.8244   -1.3092    0.0000 C   0  0  0  0  0  0  0  0  0  0  0  0
   13.6895   -0.8077    0.0000 C   0  0  0  0  0  0  0  0  0  0  0  0
    3.4030   -0.3824    0.0000 C   0  0  0  0  0  0  0  0  0  0  0  0
    5.6691    3.6924    0.0000 C   0  0  0  0  0  0  0  0  0  0  0  0
   15.2185   -0.3050    0.0000 C   0  0  0  0  0  0  0  0  0  0  0  0
    8.9447    1.6567    0.0000 H   0  0  0  0  0  0  0  0  0  0  0  0
   10.7514   -0.3498    0.0000 H   0  0  0  0  0  0  0  0  0  0  0  0
    7.8862    0.1546    0.0000 H   0  0  0  0  0  0  0  0  0  0  0  0
   11.6084    1.0262    0.0000 H   0  0  0  0  0  0  0  0  0  0  0  0
    9.4902   -1.1745    0.0000 H   0  0  0  0  0  0  0  0  0  0  0  0
   10.2482   -0.8370    0.0000 H   0  0  0  0  0  0  0  0  0  0  0  0
   10.2044    2.4733    0.0000 H   0  0  0  0  0  0  0  0  0  0  0  0
    9.4460    2.1372    0.0000 H   0  0  0  0  0  0  0  0  0  0  0  0
    8.2700    2.4276    0.0000 H   0  0  0  0  0  0  0  0  0  0  0  0
   12.8198    1.3108    0.0000 H   0  0  0  0  0  0  0  0  0  0  0  0
   11.4211   -1.1216    0.0000 H   0  0  0  0  0  0  0  0  0  0  0  0
    6.0010   -0.2624    0.0000 H   0  0  0  0  0  0  0  0  0  0  0  0
    6.0010   -2.5024    0.0000 H   0  0  0  0  0  0  0  0  0  0  0  0
    4.5981   -2.6924    0.0000 H   0  0  0  0  0  0  0  0  0  0  0  0
    4.2690   -2.5024    0.0000 H   0  0  0  0  0  0  0  0  0  0  0  0
    4.2690   -0.2624    0.0000 H   0  0  0  0  0  0  0  0  0  0  0  0
    5.4641    0.8076    0.0000 H   0  0  0  0  0  0  0  0  0  0  0  0
   12.8255   -1.9292    0.0000 H   0  0  0  0  0  0  0  0  0  0  0  0
    3.8015    0.0925    0.0000 H   0  0  0  0  0  0  0  0  0  0  0  0
    3.0044    0.0925    0.0000 H   0  0  0  0  0  0  0  0  0  0  0  0
    6.8671   -3.0024    0.0000 H   0  0  0  0  0  0  0  0  0  0  0  0
    5.7979    4.2989    0.0000 H   0  0  0  0  0  0  0  0  0  0  0  0
    5.0795    3.8842    0.0000 H   0  0  0  0  0  0  0  0  0  0  0  0
    4.5981   -3.6924    0.0000 H   0  0  0  0  0  0  0  0  0  0  0  0
    3.4030   -3.0024    0.0000 H   0  0  0  0  0  0  0  0  0  0  0  0
   15.6801   -0.7189    0.0000 H   0  0  0  0  0  0  0  0  0  0  0  0
   15.6787    0.1105    0.0000 H   0  0  0  0  0  0  0  0  0  0  0  0
    2.0000   -0.5724    0.0000 H   0  0  0  0  0  0  0  0  0  0  0  0
  1 15  1  0  0  0  0
  1 17  1  0  0  0  0
  2 16  1  0  0  0  0
  2 18  1  0  0  0  0
  3 21  1  0  0  0  0
 25  3  1  1  0  0  0
  4 25  1  0  0  0  0
  4 31  1  0  0  0  0
  5 30  1  0  0  0  0
  5 37  1  0  0  0  0
  6 32  1  0  0  0  0
  6 37  1  0  0  0  0
 26  7  1  6  0  0  0
  7 59  1  0  0  0  0
 27  8  1  1  0  0  0
  8 62  1  0  0  0  0
  9 33  1  0  0  0  0
  9 38  1  0  0  0  0
 28 10  1  6  0  0  0
 10 63  1  0  0  0  0
 11 35  1  0  0  0  0
 11 38  1  0  0  0  0
 12 36  1  0  0  0  0
 12 66  1  0  0  0  0
 13 14  1  0  0  0  0
 13 15  1  0  0  0  0
 13 18  1  0  0  0  0
 13 39  1  6  0  0  0
 14 16  1  0  0  0  0
 14 17  1  0  0  0  0
 14 40  1  6  0  0  0
 15 19  1  0  0  0  0
 15 41  1  1  0  0  0
 16 20  1  6  0  0  0
 16 42  1  0  0  0  0
 17 43  1  0  0  0  0
 17 44  1  0  0  0  0
 18 45  1  0  0  0  0
 18 46  1  0  0  0  0
 19 21  1  0  0  0  0
 19 22  2  0  0  0  0
 20 23  2  0  0  0  0
 20 24  1  0  0  0  0
 21 29  2  0  0  0  0
 22 30  1  0  0  0  0
 22 47  1  0  0  0  0
 23 33  1  0  0  0  0
 23 48  1  0  0  0  0
 24 34  2  0  0  0  0
 24 49  1  0  0  0  0
 25 26  1  0  0  0  0
 25 50  1  0  0  0  0
 26 27  1  0  0  0  0
 26 51  1  0  0  0  0
 27 28  1  0  0  0  0
 27 52  1  0  0  0  0
 28 31  1  0  0  0  0
 28 53  1  0  0  0  0
 29 32  1  0  0  0  0
 29 55  1  0  0  0  0
 30 32  2  0  0  0  0
 31 36  1  1  0  0  0
 31 54  1  0  0  0  0
 33 35  2  0  0  0  0
 34 35  1  0  0  0  0
 34 56  1  0  0  0  0
 36 57  1  0  0  0  0
 36 58  1  0  0  0  0
 37 60  1  0  0  0  0
 37 61  1  0  0  0  0
 38 64  1  0  0  0  0
 38 65  1  0  0  0  0
M  END
> <PUBCHEM_COMPOUND_CID>
70686443

> <PUBCHEM_COMPOUND_CANONICALIZED>
1

> <PUBCHEM_CACTVS_COMPLEXITY>
832

> <PUBCHEM_CACTVS_HBOND_ACCEPTOR>
12

> <PUBCHEM_CACTVS_HBOND_DONOR>
4

> <PUBCHEM_CACTVS_ROTATABLE_BOND>
5

> <PUBCHEM_CACTVS_SUBSKEYS>
AAADceB4PAAAAAAAAAAAAAAAAAAAASJEiQA0YIAAAAASAEgBQAAAGgAACAAADRSwmAMwDoAABgCAAiBCAAACCAAgIAAIiAAGiIgdNyKEMRqieCKlwBUPqAfA4PwOoQABCAAIQABCAAIQABCAAAAAAAAAAA==

> <PUBCHEM_IUPAC_OPENEYE_NAME>
(2S,3R,4S,5S,6R)-2-[[6-[(3S,3aR,6S,6aR)-3-(1,3-benzodioxol-5-yl)-1,3,3a,4,6,6a-hexahydrofuro[3,4-c]furan-6-yl]-1,3-benzodioxol-5-yl]oxy]-6-(hydroxymethyl)tetrahydropyran-3,4,5-triol

> <PUBCHEM_IUPAC_CAS_NAME>
(2S,3R,4S,5S,6R)-2-[[6-[(3S,3aR,6S,6aR)-3-(1,3-benzodioxol-5-yl)-1,3,3a,4,6,6a-hexahydrofuro[3,4-c]furan-6-yl]-1,3-benzodioxol-5-yl]oxy]-6-(hydroxymethyl)oxane-3,4,5-triol

> <PUBCHEM_IUPAC_NAME_MARKUP>
(2<I>S</I>,3<I>R</I>,4<I>S</I>,5<I>S</I>,6<I>R</I>)-2-[[6-[(3<I>S</I>,3<I>a</I><I>R</I>,6<I>S</I>,6<I>a</I><I>R</I>)-3-(1,3-benzodioxol-5-yl)-1,3,3<I>a</I>,4,6,6<I>a</I>-hexahydrofuro[3,4-c]furan-6-yl]-1,3-benzodioxol-5-yl]oxy]-6-(hydroxymethyl)oxane-3,4,5-triol

> <PUBCHEM_IUPAC_NAME>
(2S,3R,4S,5S,6R)-2-[[6-[(3S,3aR,6S,6aR)-3-(1,3-benzodioxol-5-yl)-1,3,3a,4,6,6a-hexahydrofuro[3,4-c]furan-6-yl]-1,3-benzodioxol-5-yl]oxy]-6-(hydroxymethyl)oxane-3,4,5-triol

> <PUBCHEM_IUPAC_SYSTEMATIC_NAME>
(2S,3R,4S,5S,6R)-2-[[6-[(3S,3aR,6S,6aR)-3-(1,3-benzodioxol-5-yl)-1,3,3a,4,6,6a-hexahydrofuro[3,4-c]furan-6-yl]-1,3-benzodioxol-5-yl]oxy]-6-(hydroxymethyl)oxane-3,4,5-triol

> <PUBCHEM_IUPAC_TRADITIONAL_NAME>
(2S,3R,4S,5S,6R)-2-[[6-[(3S,3aR,6S,6aR)-3-(1,3-benzodioxol-5-yl)-1,3,3a,4,6,6a-hexahydrofuro[3,4-c]furan-6-yl]-1,3-benzodioxol-5-yl]oxy]-6-methylol-tetrahydropyran-3,4,5-triol

> <PUBCHEM_IUPAC_INCHI>
InChI=1S/C26H28O12/c27-6-20-21(28)22(29)23(30)26(38-20)37-16-5-19-18(35-10-36-19)4-12(16)25-14-8-31-24(13(14)7-32-25)11-1-2-15-17(3-11)34-9-33-15/h1-5,13-14,20-30H,6-10H2/t13-,14-,20+,21+,22-,23+,24+,25+,26+/m0/s1

> <PUBCHEM_IUPAC_INCHIKEY>
HVDZWQPYIXKSCL-LFZZSFSNSA-N

> <PUBCHEM_XLOGP3_AA>
0.5

> <PUBCHEM_EXACT_MASS>
532.15807632

> <PUBCHEM_MOLECULAR_FORMULA>
C26H28O12

> <PUBCHEM_MOLECULAR_WEIGHT>
532.5

> <PUBCHEM_SMILES>
C1[C@H]2[C@H](CO[C@@H]2C3=CC4=C(C=C3O[C@H]5[C@@H]([C@H]([C@@H]([C@H](O5)CO)O)O)O)OCO4)[C@H](O1)C6=CC7=C(C=C6)OCO7

> <PUBCHEM_CONNECTIVITY_SMILES>
C1C2C(COC2C3=CC4=C(C=C3OC5C(C(C(C(O5)CO)O)O)O)OCO4)C(O1)C6=CC7=C(C=C6)OCO7

> <PUBCHEM_CACTVS_TPSA>
155

> <PUBCHEM_MONOISOTOPIC_WEIGHT>
532.15807632

> <PUBCHEM_TOTAL_CHARGE>
0

> <PUBCHEM_HEAVY_ATOM_COUNT>
38

> <PUBCHEM_ATOM_DEF_STEREO_COUNT>
9

> <PUBCHEM_ATOM_UDEF_STEREO_COUNT>
0

> <PUBCHEM_BOND_DEF_STEREO_COUNT>
0

> <PUBCHEM_BOND_UDEF_STEREO_COUNT>
0

> <PUBCHEM_ISOTOPIC_ATOM_COUNT>
0

> <PUBCHEM_COMPONENT_COUNT>
1

> <PUBCHEM_CACTVS_TAUTO_COUNT>
-1

> <PUBCHEM_COORDINATE_TYPE>
1
5
255

> <PUBCHEM_BONDANNOTATIONS>
28  10  6
13  39  6
14  40  6
15  41  5
16  20  6
19  21  8
19  22  8
20  23  8
20  24  8
21  29  8
22  30  8
23  33  8
24  34  8
29  32  8
25  3  5
30  32  8
31  36  5
33  35  8
34  35  8
26  7  6
27  8  5

$$$$
