398941
  -OEChem-01202622232D

 48 50  0     0  0  0  0  0  0999 V2000
    7.4144   -2.0346    0.0000 O   0  0  0  0  0  0  0  0  0  0  0  0
    4.6497    2.0346    0.0000 O   0  0  0  0  0  0  0  0  0  0  0  0
    7.4144    2.0346    0.0000 O   0  0  0  0  0  0  0  0  0  0  0  0
    4.6497   -2.0346    0.0000 O   0  0  0  0  0  0  0  0  0  0  0  0
    6.5321   -0.5000    0.0000 C   0  0  0  0  0  0  0  0  0  0  0  0
    5.5321    0.5000    0.0000 C   0  0  0  0  0  0  0  0  0  0  0  0
    6.5321    0.5000    0.0000 C   0  0  0  0  0  0  0  0  0  0  0  0
    5.5321   -0.5000    0.0000 C   0  0  0  0  0  0  0  0  0  0  0  0
    6.5321   -1.5000    0.0000 C   0  0  0  0  0  0  0  0  0  0  0  0
    5.5321    1.5000    0.0000 C   0  0  0  0  0  0  0  0  0  0  0  0
    7.4260   -1.0347    0.0000 C   0  0  0  0  0  0  0  0  0  0  0  0
    4.6381    1.0347    0.0000 C   0  0  0  0  0  0  0  0  0  0  0  0
    7.4260    1.0347    0.0000 C   0  0  0  0  0  0  0  0  0  0  0  0
    4.6381   -1.0347    0.0000 C   0  0  0  0  0  0  0  0  0  0  0  0
    8.3321    0.5208    0.0000 C   0  0  0  0  0  0  0  0  0  0  0  0
    3.7320   -0.5208    0.0000 C   0  0  0  0  0  0  0  0  0  0  0  0
    8.3321   -0.5208    0.0000 C   0  0  0  0  0  0  0  0  0  0  0  0
    3.7320    0.5208    0.0000 C   0  0  0  0  0  0  0  0  0  0  0  0
    9.1962    1.0242    0.0000 C   0  0  0  0  0  0  0  0  0  0  0  0
    2.8680   -1.0242    0.0000 C   0  0  0  0  0  0  0  0  0  0  0  0
   10.0641    0.5275    0.0000 C   0  0  0  0  0  0  0  0  0  0  0  0
    9.1923    2.0241    0.0000 C   0  0  0  0  0  0  0  0  0  0  0  0
    2.0000   -0.5275    0.0000 C   0  0  0  0  0  0  0  0  0  0  0  0
    2.8718   -2.0241    0.0000 C   0  0  0  0  0  0  0  0  0  0  0  0
    6.3670    1.0976    0.0000 H   0  0  0  0  0  0  0  0  0  0  0  0
    5.6971   -1.0976    0.0000 H   0  0  0  0  0  0  0  0  0  0  0  0
    5.9121   -1.5000    0.0000 H   0  0  0  0  0  0  0  0  0  0  0  0
    6.5321   -2.1200    0.0000 H   0  0  0  0  0  0  0  0  0  0  0  0
    7.1521   -1.5000    0.0000 H   0  0  0  0  0  0  0  0  0  0  0  0
    6.1521    1.5000    0.0000 H   0  0  0  0  0  0  0  0  0  0  0  0
    5.5321    2.1200    0.0000 H   0  0  0  0  0  0  0  0  0  0  0  0
    4.9121    1.5000    0.0000 H   0  0  0  0  0  0  0  0  0  0  0  0
    8.8678   -0.8329    0.0000 H   0  0  0  0  0  0  0  0  0  0  0  0
    3.1963    0.8329    0.0000 H   0  0  0  0  0  0  0  0  0  0  0  0
    8.6580    1.3321    0.0000 H   0  0  0  0  0  0  0  0  0  0  0  0
    2.8656   -0.4042    0.0000 H   0  0  0  0  0  0  0  0  0  0  0  0
    9.7562   -0.0106    0.0000 H   0  0  0  0  0  0  0  0  0  0  0  0
   10.6022    0.2196    0.0000 H   0  0  0  0  0  0  0  0  0  0  0  0
   10.3720    1.0656    0.0000 H   0  0  0  0  0  0  0  0  0  0  0  0
    9.8123    2.0265    0.0000 H   0  0  0  0  0  0  0  0  0  0  0  0
    9.1899    2.6441    0.0000 H   0  0  0  0  0  0  0  0  0  0  0  0
    8.5723    2.0218    0.0000 H   0  0  0  0  0  0  0  0  0  0  0  0
    2.3079    0.0106    0.0000 H   0  0  0  0  0  0  0  0  0  0  0  0
    1.4619   -0.2196    0.0000 H   0  0  0  0  0  0  0  0  0  0  0  0
    1.6921   -1.0656    0.0000 H   0  0  0  0  0  0  0  0  0  0  0  0
    2.2518   -2.0265    0.0000 H   0  0  0  0  0  0  0  0  0  0  0  0
    2.8742   -2.6441    0.0000 H   0  0  0  0  0  0  0  0  0  0  0  0
    3.4918   -2.0218    0.0000 H   0  0  0  0  0  0  0  0  0  0  0  0
  1 11  2  0  0  0  0
  2 12  2  0  0  0  0
  3 13  2  0  0  0  0
  4 14  2  0  0  0  0
  5  7  1  0  0  0  0
  5  8  1  0  0  0  0
  5  9  1  0  0  0  0
  5 11  1  0  0  0  0
  6  7  1  0  0  0  0
  6  8  1  0  0  0  0
  6 10  1  0  0  0  0
  6 12  1  0  0  0  0
  7 13  1  0  0  0  0
  7 25  1  0  0  0  0
  8 14  1  0  0  0  0
  8 26  1  0  0  0  0
  9 27  1  0  0  0  0
  9 28  1  0  0  0  0
  9 29  1  0  0  0  0
 10 30  1  0  0  0  0
 10 31  1  0  0  0  0
 10 32  1  0  0  0  0
 11 17  1  0  0  0  0
 12 18  1  0  0  0  0
 13 15  1  0  0  0  0
 14 16  1  0  0  0  0
 15 17  2  0  0  0  0
 15 19  1  0  0  0  0
 16 18  2  0  0  0  0
 16 20  1  0  0  0  0
 17 33  1  0  0  0  0
 18 34  1  0  0  0  0
 19 21  1  0  0  0  0
 19 22  1  0  0  0  0
 19 35  1  0  0  0  0
 20 23  1  0  0  0  0
 20 24  1  0  0  0  0
 20 36  1  0  0  0  0
 21 37  1  0  0  0  0
 21 38  1  0  0  0  0
 21 39  1  0  0  0  0
 22 40  1  0  0  0  0
 22 41  1  0  0  0  0
 22 42  1  0  0  0  0
 23 43  1  0  0  0  0
 23 44  1  0  0  0  0
 23 45  1  0  0  0  0
 24 46  1  0  0  0  0
 24 47  1  0  0  0  0
 24 48  1  0  0  0  0
M  END
> <PUBCHEM_COMPOUND_CID>
398941

> <PUBCHEM_COMPOUND_CANONICALIZED>
1

> <PUBCHEM_CACTVS_COMPLEXITY>
684

> <PUBCHEM_CACTVS_HBOND_ACCEPTOR>
4

> <PUBCHEM_CACTVS_HBOND_DONOR>
0

> <PUBCHEM_CACTVS_ROTATABLE_BOND>
2

> <PUBCHEM_CACTVS_SUBSKEYS>
AAADceB4OAAAAAAAAAAAAAAAAABgAAAAAAAgQAAAAAAQIAAAAAAAGgAAAAAADwSAgAACAAAAAACIAqBSAAAAAAAgAAAACAEAAEgAABIAAQAAAAAAgAAIAYMJisCvgAAAAAAAAAAAAAAAAAAAAAAAAAAAAA==

> <PUBCHEM_IUPAC_OPENEYE_NAME>
3,7-diisopropyl-4b,8b-dimethyl-4a,8a-dihydrobiphenylene-1,4,5,8-tetrone

> <PUBCHEM_IUPAC_CAS_NAME>
4b,8b-dimethyl-3,7-di(propan-2-yl)-4a,8a-dihydrobiphenylene-1,4,5,8-tetrone

> <PUBCHEM_IUPAC_NAME_MARKUP>
4<I>b</I>,8<I>b</I>-dimethyl-3,7-di(propan-2-yl)-4<I>a</I>,8<I>a</I>-dihydrobiphenylene-1,4,5,8-tetrone

> <PUBCHEM_IUPAC_NAME>
4b,8b-dimethyl-3,7-di(propan-2-yl)-4a,8a-dihydrobiphenylene-1,4,5,8-tetrone

> <PUBCHEM_IUPAC_SYSTEMATIC_NAME>
4b,8b-dimethyl-3,7-di(propan-2-yl)-4a,8a-dihydrobiphenylene-1,4,5,8-tetrone

> <PUBCHEM_IUPAC_TRADITIONAL_NAME>
3,7-diisopropyl-4b,8b-dimethyl-4a,8a-dihydrobiphenylene-1,4,5,8-diquinone

> <PUBCHEM_IUPAC_INCHI>
InChI=1S/C20H24O4/c1-9(2)11-7-13(21)19(5)17(15(11)23)20(6)14(22)8-12(10(3)4)16(24)18(19)20/h7-10,17-18H,1-6H3

> <PUBCHEM_IUPAC_INCHIKEY>
FPRGRROJPRIHJP-UHFFFAOYSA-N

> <PUBCHEM_XLOGP3_AA>
2.1

> <PUBCHEM_EXACT_MASS>
328.16745924

> <PUBCHEM_MOLECULAR_FORMULA>
C20H24O4

> <PUBCHEM_MOLECULAR_WEIGHT>
328.4

> <PUBCHEM_SMILES>
CC(C)C1=CC(=O)C2(C(C1=O)C3(C2C(=O)C(=CC3=O)C(C)C)C)C

> <PUBCHEM_CONNECTIVITY_SMILES>
CC(C)C1=CC(=O)C2(C(C1=O)C3(C2C(=O)C(=CC3=O)C(C)C)C)C

> <PUBCHEM_CACTVS_TPSA>
68.3

> <PUBCHEM_MONOISOTOPIC_WEIGHT>
328.16745924

> <PUBCHEM_TOTAL_CHARGE>
0

> <PUBCHEM_HEAVY_ATOM_COUNT>
24

> <PUBCHEM_ATOM_DEF_STEREO_COUNT>
0

> <PUBCHEM_ATOM_UDEF_STEREO_COUNT>
0

> <PUBCHEM_BOND_DEF_STEREO_COUNT>
0

> <PUBCHEM_BOND_UDEF_STEREO_COUNT>
0

> <PUBCHEM_ISOTOPIC_ATOM_COUNT>
0

> <PUBCHEM_COMPONENT_COUNT>
1

> <PUBCHEM_CACTVS_TAUTO_COUNT>
-1

> <PUBCHEM_COORDINATE_TYPE>
1
5
255

$$$$
