6442612
  -OEChem-01202622342D

 56 56  0     0  0  0  0  0  0999 V2000
    7.7331    2.2500    0.0000 O   0  0  0  0  0  0  0  0  0  0  0  0
    4.2690    6.2500    0.0000 O   0  0  0  0  0  0  0  0  0  0  0  0
    2.5369    5.2500    0.0000 O   0  0  0  0  0  0  0  0  0  0  0  0
    9.4651   -2.7500    0.0000 C   0  0  0  0  0  0  0  0  0  0  0  0
    9.4651   -3.7500    0.0000 C   0  0  0  0  0  0  0  0  0  0  0  0
    8.5991   -2.2500    0.0000 C   0  0  0  0  0  0  0  0  0  0  0  0
   10.3312   -4.2500    0.0000 C   0  0  0  0  0  0  0  0  0  0  0  0
    8.5991   -1.2500    0.0000 C   0  0  0  0  0  0  0  0  0  0  0  0
   10.3312   -5.2500    0.0000 C   0  0  0  0  0  0  0  0  0  0  0  0
    7.7331   -0.7500    0.0000 C   0  0  0  0  0  0  0  0  0  0  0  0
   11.1972   -5.7500    0.0000 C   0  0  0  0  0  0  0  0  0  0  0  0
   11.1972   -6.7500    0.0000 C   0  0  0  0  0  0  0  0  0  0  0  0
    7.7331    0.2500    0.0000 C   0  0  0  0  0  0  0  0  0  0  0  0
    6.8671    0.7500    0.0000 C   0  0  0  0  0  0  0  0  0  0  0  0
    6.0010    2.2500    0.0000 C   0  0  0  0  0  0  0  0  0  0  0  0
    6.0010    3.2500    0.0000 C   0  0  0  0  0  0  0  0  0  0  0  0
    6.8671    1.7500    0.0000 C   0  0  0  0  0  0  0  0  0  0  0  0
    5.1350    3.7500    0.0000 C   0  0  0  0  0  0  0  0  0  0  0  0
    5.1350    4.7500    0.0000 C   0  0  0  0  0  0  0  0  0  0  0  0
    4.2690    3.2500    0.0000 C   0  0  0  0  0  0  0  0  0  0  0  0
    4.2690    5.2500    0.0000 C   0  0  0  0  0  0  0  0  0  0  0  0
    3.4030    3.7500    0.0000 C   0  0  0  0  0  0  0  0  0  0  0  0
    3.4030    4.7500    0.0000 C   0  0  0  0  0  0  0  0  0  0  0  0
    5.1350    6.7500    0.0000 C   0  0  0  0  0  0  0  0  0  0  0  0
   10.0757   -2.8577    0.0000 H   0  0  0  0  0  0  0  0  0  0  0  0
    9.6772   -2.1674    0.0000 H   0  0  0  0  0  0  0  0  0  0  0  0
    8.8546   -3.6423    0.0000 H   0  0  0  0  0  0  0  0  0  0  0  0
    9.2531   -4.3326    0.0000 H   0  0  0  0  0  0  0  0  0  0  0  0
    7.9885   -2.1423    0.0000 H   0  0  0  0  0  0  0  0  0  0  0  0
    8.3871   -2.8326    0.0000 H   0  0  0  0  0  0  0  0  0  0  0  0
   10.9417   -4.3577    0.0000 H   0  0  0  0  0  0  0  0  0  0  0  0
   10.5432   -3.6674    0.0000 H   0  0  0  0  0  0  0  0  0  0  0  0
    9.2097   -1.3577    0.0000 H   0  0  0  0  0  0  0  0  0  0  0  0
    8.8112   -0.6674    0.0000 H   0  0  0  0  0  0  0  0  0  0  0  0
    9.7206   -5.1423    0.0000 H   0  0  0  0  0  0  0  0  0  0  0  0
   10.1191   -5.8326    0.0000 H   0  0  0  0  0  0  0  0  0  0  0  0
    7.1225   -0.6423    0.0000 H   0  0  0  0  0  0  0  0  0  0  0  0
    7.5210   -1.3326    0.0000 H   0  0  0  0  0  0  0  0  0  0  0  0
   11.8078   -5.8577    0.0000 H   0  0  0  0  0  0  0  0  0  0  0  0
   11.4092   -5.1674    0.0000 H   0  0  0  0  0  0  0  0  0  0  0  0
   10.5772   -6.7500    0.0000 H   0  0  0  0  0  0  0  0  0  0  0  0
   11.1972   -7.3700    0.0000 H   0  0  0  0  0  0  0  0  0  0  0  0
   11.8172   -6.7500    0.0000 H   0  0  0  0  0  0  0  0  0  0  0  0
    8.2700    0.5600    0.0000 H   0  0  0  0  0  0  0  0  0  0  0  0
    5.3905    2.3577    0.0000 H   0  0  0  0  0  0  0  0  0  0  0  0
    5.7890    1.6674    0.0000 H   0  0  0  0  0  0  0  0  0  0  0  0
    6.3301    0.4400    0.0000 H   0  0  0  0  0  0  0  0  0  0  0  0
    6.6116    3.1423    0.0000 H   0  0  0  0  0  0  0  0  0  0  0  0
    6.2131    3.8326    0.0000 H   0  0  0  0  0  0  0  0  0  0  0  0
    5.6720    5.0600    0.0000 H   0  0  0  0  0  0  0  0  0  0  0  0
    4.2690    2.6300    0.0000 H   0  0  0  0  0  0  0  0  0  0  0  0
    2.8660    3.4400    0.0000 H   0  0  0  0  0  0  0  0  0  0  0  0
    2.0000    4.9400    0.0000 H   0  0  0  0  0  0  0  0  0  0  0  0
    5.4450    6.2131    0.0000 H   0  0  0  0  0  0  0  0  0  0  0  0
    5.6720    7.0600    0.0000 H   0  0  0  0  0  0  0  0  0  0  0  0
    4.8250    7.2869    0.0000 H   0  0  0  0  0  0  0  0  0  0  0  0
  1 17  2  0  0  0  0
  2 21  1  0  0  0  0
  2 24  1  0  0  0  0
  3 23  1  0  0  0  0
  3 53  1  0  0  0  0
  4  5  1  0  0  0  0
  4  6  1  0  0  0  0
  4 25  1  0  0  0  0
  4 26  1  0  0  0  0
  5  7  1  0  0  0  0
  5 27  1  0  0  0  0
  5 28  1  0  0  0  0
  6  8  1  0  0  0  0
  6 29  1  0  0  0  0
  6 30  1  0  0  0  0
  7  9  1  0  0  0  0
  7 31  1  0  0  0  0
  7 32  1  0  0  0  0
  8 10  1  0  0  0  0
  8 33  1  0  0  0  0
  8 34  1  0  0  0  0
  9 11  1  0  0  0  0
  9 35  1  0  0  0  0
  9 36  1  0  0  0  0
 10 13  1  0  0  0  0
 10 37  1  0  0  0  0
 10 38  1  0  0  0  0
 11 12  1  0  0  0  0
 11 39  1  0  0  0  0
 11 40  1  0  0  0  0
 12 41  1  0  0  0  0
 12 42  1  0  0  0  0
 12 43  1  0  0  0  0
 13 14  2  0  0  0  0
 13 44  1  0  0  0  0
 14 17  1  0  0  0  0
 14 47  1  0  0  0  0
 15 16  1  0  0  0  0
 15 17  1  0  0  0  0
 15 45  1  0  0  0  0
 15 46  1  0  0  0  0
 16 18  1  0  0  0  0
 16 48  1  0  0  0  0
 16 49  1  0  0  0  0
 18 19  2  0  0  0  0
 18 20  1  0  0  0  0
 19 21  1  0  0  0  0
 19 50  1  0  0  0  0
 20 22  2  0  0  0  0
 20 51  1  0  0  0  0
 21 23  2  0  0  0  0
 22 23  1  0  0  0  0
 22 52  1  0  0  0  0
 24 54  1  0  0  0  0
 24 55  1  0  0  0  0
 24 56  1  0  0  0  0
M  END
> <PUBCHEM_COMPOUND_CID>
6442612

> <PUBCHEM_COMPOUND_CANONICALIZED>
1

> <PUBCHEM_CACTVS_COMPLEXITY>
351

> <PUBCHEM_CACTVS_HBOND_ACCEPTOR>
3

> <PUBCHEM_CACTVS_HBOND_DONOR>
1

> <PUBCHEM_CACTVS_ROTATABLE_BOND>
13

> <PUBCHEM_CACTVS_SUBSKEYS>
AAADcfB4MAAAAAAAAAAAAAAAAAAAAAAAAAAwAAAAAAAAAAABAAAAGgAACAAADASAmAIyBoAABgCIAqBSAAACCAAgIAAIiAEGiMgNJjKGMRqAcCMkwBELuYeIyLCOIAABAAAAQABAAAIAAACAAAAAAAAAAA==

> <PUBCHEM_IUPAC_OPENEYE_NAME>
(E)-1-(4-hydroxy-3-methoxy-phenyl)tetradec-4-en-3-one

> <PUBCHEM_IUPAC_CAS_NAME>
(E)-1-(4-hydroxy-3-methoxyphenyl)-4-tetradecen-3-one

> <PUBCHEM_IUPAC_NAME_MARKUP>
(<I>E</I>)-1-(4-hydroxy-3-methoxyphenyl)tetradec-4-en-3-one

> <PUBCHEM_IUPAC_NAME>
(E)-1-(4-hydroxy-3-methoxyphenyl)tetradec-4-en-3-one

> <PUBCHEM_IUPAC_SYSTEMATIC_NAME>
(E)-1-(3-methoxy-4-oxidanyl-phenyl)tetradec-4-en-3-one

> <PUBCHEM_IUPAC_TRADITIONAL_NAME>
(E)-1-(4-hydroxy-3-methoxy-phenyl)tetradec-4-en-3-one

> <PUBCHEM_IUPAC_INCHI>
InChI=1S/C21H32O3/c1-3-4-5-6-7-8-9-10-11-12-19(22)15-13-18-14-16-20(23)21(17-18)24-2/h11-12,14,16-17,23H,3-10,13,15H2,1-2H3/b12-11+

> <PUBCHEM_IUPAC_INCHIKEY>
FADFGCOCHHNRHF-VAWYXSNFSA-N

> <PUBCHEM_XLOGP3>
5.9

> <PUBCHEM_EXACT_MASS>
332.23514488

> <PUBCHEM_MOLECULAR_FORMULA>
C21H32O3

> <PUBCHEM_MOLECULAR_WEIGHT>
332.5

> <PUBCHEM_SMILES>
CCCCCCCCC/C=C/C(=O)CCC1=CC(=C(C=C1)O)OC

> <PUBCHEM_CONNECTIVITY_SMILES>
CCCCCCCCCC=CC(=O)CCC1=CC(=C(C=C1)O)OC

> <PUBCHEM_CACTVS_TPSA>
46.5

> <PUBCHEM_MONOISOTOPIC_WEIGHT>
332.23514488

> <PUBCHEM_TOTAL_CHARGE>
0

> <PUBCHEM_HEAVY_ATOM_COUNT>
24

> <PUBCHEM_ATOM_DEF_STEREO_COUNT>
0

> <PUBCHEM_ATOM_UDEF_STEREO_COUNT>
0

> <PUBCHEM_BOND_DEF_STEREO_COUNT>
1

> <PUBCHEM_BOND_UDEF_STEREO_COUNT>
0

> <PUBCHEM_ISOTOPIC_ATOM_COUNT>
0

> <PUBCHEM_COMPONENT_COUNT>
1

> <PUBCHEM_CACTVS_TAUTO_COUNT>
-1

> <PUBCHEM_COORDINATE_TYPE>
1
5
255

> <PUBCHEM_BONDANNOTATIONS>
18  19  8
18  20  8
19  21  8
20  22  8
21  23  8
22  23  8

$$$$
