10798883
  -OEChem-01202622362D

 38 39  0     1  0  0  0  0  0999 V2000
    2.6200   -2.1830    0.0000 O   0  0  0  0  0  0  0  0  0  0  0  0
    3.1200    0.6830    0.0000 C   0  0  2  0  0  0  0  0  0  0  0  0
    2.2540    0.1830    0.0000 C   0  0  0  0  0  0  0  0  0  0  0  0
    3.1200   -1.3170    0.0000 C   0  0  2  0  0  0  0  0  0  0  0  0
    2.2540   -0.8170    0.0000 C   0  0  0  0  0  0  0  0  0  0  0  0
    3.9860    0.1830    0.0000 C   0  0  0  0  0  0  0  0  0  0  0  0
    3.1200    1.6830    0.0000 C   0  0  0  0  0  0  0  0  0  0  0  0
    3.9860   -0.8170    0.0000 C   0  0  0  0  0  0  0  0  0  0  0  0
    3.6200   -2.1830    0.0000 C   0  0  0  0  0  0  0  0  0  0  0  0
    4.8800    0.7177    0.0000 C   0  0  0  0  0  0  0  0  0  0  0  0
    2.2540    2.1830    0.0000 C   0  0  0  0  0  0  0  0  0  0  0  0
    3.9860    2.1830    0.0000 C   0  0  0  0  0  0  0  0  0  0  0  0
    4.8800   -1.3517    0.0000 C   0  0  0  0  0  0  0  0  0  0  0  0
    5.7860    0.2038    0.0000 C   0  0  0  0  0  0  0  0  0  0  0  0
    5.7860   -0.8378    0.0000 C   0  0  0  0  0  0  0  0  0  0  0  0
    6.6501    0.7072    0.0000 C   0  0  0  0  0  0  0  0  0  0  0  0
    3.6569    0.9930    0.0000 H   0  0  0  0  0  0  0  0  0  0  0  0
    2.0419    0.7656    0.0000 H   0  0  0  0  0  0  0  0  0  0  0  0
    1.6434    0.0754    0.0000 H   0  0  0  0  0  0  0  0  0  0  0  0
    1.6434   -0.7093    0.0000 H   0  0  0  0  0  0  0  0  0  0  0  0
    2.0419   -1.3996    0.0000 H   0  0  0  0  0  0  0  0  0  0  0  0
    2.5831    1.3730    0.0000 H   0  0  0  0  0  0  0  0  0  0  0  0
    3.0831   -2.4930    0.0000 H   0  0  0  0  0  0  0  0  0  0  0  0
    3.9300   -2.7200    0.0000 H   0  0  0  0  0  0  0  0  0  0  0  0
    4.1569   -1.8730    0.0000 H   0  0  0  0  0  0  0  0  0  0  0  0
    4.8728    1.3376    0.0000 H   0  0  0  0  0  0  0  0  0  0  0  0
    2.5640    2.7200    0.0000 H   0  0  0  0  0  0  0  0  0  0  0  0
    1.7170    2.4930    0.0000 H   0  0  0  0  0  0  0  0  0  0  0  0
    1.9440    1.6461    0.0000 H   0  0  0  0  0  0  0  0  0  0  0  0
    4.2960    1.6461    0.0000 H   0  0  0  0  0  0  0  0  0  0  0  0
    4.5230    2.4930    0.0000 H   0  0  0  0  0  0  0  0  0  0  0  0
    3.6760    2.7200    0.0000 H   0  0  0  0  0  0  0  0  0  0  0  0
    4.8728   -1.9716    0.0000 H   0  0  0  0  0  0  0  0  0  0  0  0
    2.0000   -2.1830    0.0000 H   0  0  0  0  0  0  0  0  0  0  0  0
    6.3218   -1.1499    0.0000 H   0  0  0  0  0  0  0  0  0  0  0  0
    6.9622    0.1714    0.0000 H   0  0  0  0  0  0  0  0  0  0  0  0
    7.1859    1.0192    0.0000 H   0  0  0  0  0  0  0  0  0  0  0  0
    6.3381    1.2429    0.0000 H   0  0  0  0  0  0  0  0  0  0  0  0
  4  1  1  6  0  0  0
  1 34  1  0  0  0  0
  2  3  1  0  0  0  0
  2  6  1  0  0  0  0
  2  7  1  1  0  0  0
  2 17  1  0  0  0  0
  3  5  1  0  0  0  0
  3 18  1  0  0  0  0
  3 19  1  0  0  0  0
  4  5  1  0  0  0  0
  4  8  1  0  0  0  0
  4  9  1  0  0  0  0
  5 20  1  0  0  0  0
  5 21  1  0  0  0  0
  6  8  2  0  0  0  0
  6 10  1  0  0  0  0
  7 11  1  0  0  0  0
  7 12  1  0  0  0  0
  7 22  1  0  0  0  0
  8 13  1  0  0  0  0
  9 23  1  0  0  0  0
  9 24  1  0  0  0  0
  9 25  1  0  0  0  0
 10 14  2  0  0  0  0
 10 26  1  0  0  0  0
 11 27  1  0  0  0  0
 11 28  1  0  0  0  0
 11 29  1  0  0  0  0
 12 30  1  0  0  0  0
 12 31  1  0  0  0  0
 12 32  1  0  0  0  0
 13 15  2  0  0  0  0
 13 33  1  0  0  0  0
 14 15  1  0  0  0  0
 14 16  1  0  0  0  0
 15 35  1  0  0  0  0
 16 36  1  0  0  0  0
 16 37  1  0  0  0  0
 16 38  1  0  0  0  0
M  END
> <PUBCHEM_COMPOUND_CID>
10798883

> <PUBCHEM_COMPOUND_CANONICALIZED>
1

> <PUBCHEM_CACTVS_COMPLEXITY>
248

> <PUBCHEM_CACTVS_HBOND_ACCEPTOR>
1

> <PUBCHEM_CACTVS_HBOND_DONOR>
1

> <PUBCHEM_CACTVS_ROTATABLE_BOND>
1

> <PUBCHEM_CACTVS_SUBSKEYS>
AAADceBwIAAAAAAAAAAAAAAAAAAAAAAAAAAwYAAAAAAAAADBAAAAGgAACAAADUSAmAAyAIAAAgCAAiBCAAACAAAgAAAIiAAACIgIJiKAERCAcAAkwAEImAeAwPAOwAACAAAQAADAAAYAADAAAAAAAAAAAA==

> <PUBCHEM_IUPAC_OPENEYE_NAME>
(1R,4S)-4-isopropyl-1,6-dimethyl-tetralin-1-ol

> <PUBCHEM_IUPAC_CAS_NAME>
(1R,4S)-1,6-dimethyl-4-propan-2-yl-3,4-dihydro-2H-naphthalen-1-ol

> <PUBCHEM_IUPAC_NAME_MARKUP>
(1<I>R</I>,4<I>S</I>)-1,6-dimethyl-4-propan-2-yl-3,4-dihydro-2<I>H</I>-naphthalen-1-ol

> <PUBCHEM_IUPAC_NAME>
(1R,4S)-1,6-dimethyl-4-propan-2-yl-3,4-dihydro-2H-naphthalen-1-ol

> <PUBCHEM_IUPAC_SYSTEMATIC_NAME>
(1R,4S)-1,6-dimethyl-4-propan-2-yl-3,4-dihydro-2H-naphthalen-1-ol

> <PUBCHEM_IUPAC_TRADITIONAL_NAME>
(1R,4S)-4-isopropyl-1,6-dimethyl-tetralin-1-ol

> <PUBCHEM_IUPAC_INCHI>
InChI=1S/C15H22O/c1-10(2)12-7-8-15(4,16)14-6-5-11(3)9-13(12)14/h5-6,9-10,12,16H,7-8H2,1-4H3/t12-,15+/m0/s1

> <PUBCHEM_IUPAC_INCHIKEY>
MTOMOICLIZNIAM-SWLSCSKDSA-N

> <PUBCHEM_XLOGP3_AA>
3.5

> <PUBCHEM_EXACT_MASS>
218.167065321

> <PUBCHEM_MOLECULAR_FORMULA>
C15H22O

> <PUBCHEM_MOLECULAR_WEIGHT>
218.33

> <PUBCHEM_SMILES>
CC1=CC2=C(C=C1)[C@](CC[C@H]2C(C)C)(C)O

> <PUBCHEM_CONNECTIVITY_SMILES>
CC1=CC2=C(C=C1)C(CCC2C(C)C)(C)O

> <PUBCHEM_CACTVS_TPSA>
20.2

> <PUBCHEM_MONOISOTOPIC_WEIGHT>
218.167065321

> <PUBCHEM_TOTAL_CHARGE>
0

> <PUBCHEM_HEAVY_ATOM_COUNT>
16

> <PUBCHEM_ATOM_DEF_STEREO_COUNT>
2

> <PUBCHEM_ATOM_UDEF_STEREO_COUNT>
0

> <PUBCHEM_BOND_DEF_STEREO_COUNT>
0

> <PUBCHEM_BOND_UDEF_STEREO_COUNT>
0

> <PUBCHEM_ISOTOPIC_ATOM_COUNT>
0

> <PUBCHEM_COMPONENT_COUNT>
1

> <PUBCHEM_CACTVS_TAUTO_COUNT>
-1

> <PUBCHEM_COORDINATE_TYPE>
1
5
255

> <PUBCHEM_BONDANNOTATIONS>
4  1  6
10  14  8
13  15  8
14  15  8
2  7  5
6  10  8
6  8  8
8  13  8

$$$$
