5352908
  -OEChem-01202622332D

 20 19  0     0  0  0  0  0  0999 V2000
    4.5981   -0.4400    0.0000 S   0  0  0  0  0  0  0  0  0  0  0  0
    5.4641    0.0600    0.0000 S   0  0  0  0  0  0  0  0  0  0  0  0
    2.8660   -0.4400    0.0000 C   0  0  0  0  0  0  0  0  0  0  0  0
    3.7321    0.0600    0.0000 C   0  0  0  0  0  0  0  0  0  0  0  0
    2.0000    0.0600    0.0000 C   0  0  0  0  0  0  0  0  0  0  0  0
    6.3301   -0.4400    0.0000 C   0  0  0  0  0  0  0  0  0  0  0  0
    7.1962    0.0600    0.0000 C   0  0  0  0  0  0  0  0  0  0  0  0
    7.1962    1.0600    0.0000 C   0  0  0  0  0  0  0  0  0  0  0  0
    2.4675   -0.9149    0.0000 H   0  0  0  0  0  0  0  0  0  0  0  0
    3.2646   -0.9149    0.0000 H   0  0  0  0  0  0  0  0  0  0  0  0
    4.1306    0.5349    0.0000 H   0  0  0  0  0  0  0  0  0  0  0  0
    3.3335    0.5349    0.0000 H   0  0  0  0  0  0  0  0  0  0  0  0
    2.3100    0.5969    0.0000 H   0  0  0  0  0  0  0  0  0  0  0  0
    1.4631    0.3700    0.0000 H   0  0  0  0  0  0  0  0  0  0  0  0
    1.6900   -0.4769    0.0000 H   0  0  0  0  0  0  0  0  0  0  0  0
    6.3301   -1.0600    0.0000 H   0  0  0  0  0  0  0  0  0  0  0  0
    7.7331   -0.2500    0.0000 H   0  0  0  0  0  0  0  0  0  0  0  0
    7.8162    1.0600    0.0000 H   0  0  0  0  0  0  0  0  0  0  0  0
    7.1962    1.6800    0.0000 H   0  0  0  0  0  0  0  0  0  0  0  0
    6.5762    1.0600    0.0000 H   0  0  0  0  0  0  0  0  0  0  0  0
  1  2  1  0  0  0  0
  1  4  1  0  0  0  0
  2  6  1  0  0  0  0
  3  4  1  0  0  0  0
  3  5  1  0  0  0  0
  3  9  1  0  0  0  0
  3 10  1  0  0  0  0
  4 11  1  0  0  0  0
  4 12  1  0  0  0  0
  5 13  1  0  0  0  0
  5 14  1  0  0  0  0
  5 15  1  0  0  0  0
  6  7  2  0  0  0  0
  6 16  1  0  0  0  0
  7  8  1  0  0  0  0
  7 17  1  0  0  0  0
  8 18  1  0  0  0  0
  8 19  1  0  0  0  0
  8 20  1  0  0  0  0
M  END
> <PUBCHEM_COMPOUND_CID>
5352908

> <PUBCHEM_COMPOUND_CANONICALIZED>
1

> <PUBCHEM_CACTVS_COMPLEXITY>
59.5

> <PUBCHEM_CACTVS_HBOND_ACCEPTOR>
2

> <PUBCHEM_CACTVS_HBOND_DONOR>
0

> <PUBCHEM_CACTVS_ROTATABLE_BOND>
4

> <PUBCHEM_CACTVS_SUBSKEYS>
AAADccBgAABgAAAAAAAAAAAAAAAAAAAAAAAAAAAAAAAAAAAAAAAAGAQAAAAACACEQACCAAAAAACAACBCAAAAAAAAAAAIAAAAAAAAAAAAAQAAAAAAAAAAAAAAAAAAAAAAAAAAAAAAAAAAAAAAAAAAAAAAAA==

> <PUBCHEM_IUPAC_OPENEYE_NAME>
1-[[(Z)-prop-1-enyl]disulfanyl]propane

> <PUBCHEM_IUPAC_CAS_NAME>
1-[[(Z)-prop-1-enyl]disulfanyl]propane

> <PUBCHEM_IUPAC_NAME_MARKUP>
1-[[(<I>Z</I>)-prop-1-enyl]disulfanyl]propane

> <PUBCHEM_IUPAC_NAME>
1-[[(Z)-prop-1-enyl]disulfanyl]propane

> <PUBCHEM_IUPAC_SYSTEMATIC_NAME>
1-[[(Z)-prop-1-enyl]disulfanyl]propane

> <PUBCHEM_IUPAC_TRADITIONAL_NAME>
1-[[(Z)-prop-1-enyl]disulfanyl]propane

> <PUBCHEM_IUPAC_INCHI>
InChI=1S/C6H12S2/c1-3-5-7-8-6-4-2/h3,5H,4,6H2,1-2H3/b5-3-

> <PUBCHEM_IUPAC_INCHIKEY>
AAPBYIVJOWCMGH-HYXAFXHYSA-N

> <PUBCHEM_XLOGP3_AA>
2.5

> <PUBCHEM_EXACT_MASS>
148.03804273

> <PUBCHEM_MOLECULAR_FORMULA>
C6H12S2

> <PUBCHEM_MOLECULAR_WEIGHT>
148.3

> <PUBCHEM_SMILES>
CCCSS/C=C\C

> <PUBCHEM_CONNECTIVITY_SMILES>
CCCSSC=CC

> <PUBCHEM_CACTVS_TPSA>
50.6

> <PUBCHEM_MONOISOTOPIC_WEIGHT>
148.03804273

> <PUBCHEM_TOTAL_CHARGE>
0

> <PUBCHEM_HEAVY_ATOM_COUNT>
8

> <PUBCHEM_ATOM_DEF_STEREO_COUNT>
0

> <PUBCHEM_ATOM_UDEF_STEREO_COUNT>
0

> <PUBCHEM_BOND_DEF_STEREO_COUNT>
1

> <PUBCHEM_BOND_UDEF_STEREO_COUNT>
0

> <PUBCHEM_ISOTOPIC_ATOM_COUNT>
0

> <PUBCHEM_COMPONENT_COUNT>
1

> <PUBCHEM_CACTVS_TAUTO_COUNT>
-1

> <PUBCHEM_COORDINATE_TYPE>
1
5
255

$$$$
