96943
  -OEChem-01202622192D

 37 40  0     0  0  0  0  0  0999 V2000
    7.9875   -0.0664    0.0000 O   0  0  0  0  0  0  0  0  0  0  0  0
    4.5124   -0.9830    0.0000 N   0  0  0  0  0  0  0  0  0  0  0  0
    8.3170   -1.0546    0.0000 C   0  0  0  0  0  0  0  0  0  0  0  0
    5.3181   -0.4008    0.0000 C   0  0  0  0  0  0  0  0  0  0  0  0
    6.2962   -0.6087    0.0000 C   0  0  0  0  0  0  0  0  0  0  0  0
    5.0091    0.5503    0.0000 C   0  0  0  0  0  0  0  0  0  0  0  0
    6.9654    0.1344    0.0000 C   0  0  0  0  0  0  0  0  0  0  0  0
    4.0150    0.5477    0.0000 C   0  0  0  0  0  0  0  0  0  0  0  0
    6.6564    1.0855    0.0000 C   0  0  0  0  0  0  0  0  0  0  0  0
    7.6200   -1.8286    0.0000 C   0  0  0  0  0  0  0  0  0  0  0  0
    3.7086   -0.3980    0.0000 C   0  0  0  0  0  0  0  0  0  0  0  0
    5.6782    1.2934    0.0000 C   0  0  0  0  0  0  0  0  0  0  0  0
    6.6028   -1.6042    0.0000 C   0  0  0  0  0  0  0  0  0  0  0  0
    9.0627   -1.7208    0.0000 C   0  0  0  0  0  0  0  0  0  0  0  0
    9.2668   -0.7419    0.0000 C   0  0  0  0  0  0  0  0  0  0  0  0
    3.3334    1.3272    0.0000 C   0  0  0  0  0  0  0  0  0  0  0  0
    7.3255    1.8286    0.0000 C   0  0  0  0  0  0  0  0  0  0  0  0
    2.6994   -0.6298    0.0000 C   0  0  0  0  0  0  0  0  0  0  0  0
    2.3191    1.1188    0.0000 C   0  0  0  0  0  0  0  0  0  0  0  0
    2.0000    0.1338    0.0000 C   0  0  0  0  0  0  0  0  0  0  0  0
    7.8093   -2.4190    0.0000 H   0  0  0  0  0  0  0  0  0  0  0  0
    6.1827   -2.0601    0.0000 H   0  0  0  0  0  0  0  0  0  0  0  0
    5.4866    1.8831    0.0000 H   0  0  0  0  0  0  0  0  0  0  0  0
    4.5113   -1.6030    0.0000 H   0  0  0  0  0  0  0  0  0  0  0  0
    8.6496   -2.1832    0.0000 H   0  0  0  0  0  0  0  0  0  0  0  0
    9.5250   -2.1339    0.0000 H   0  0  0  0  0  0  0  0  0  0  0  0
    9.4758   -1.2585    0.0000 H   0  0  0  0  0  0  0  0  0  0  0  0
    9.4607   -1.3308    0.0000 H   0  0  0  0  0  0  0  0  0  0  0  0
    9.8557   -0.5480    0.0000 H   0  0  0  0  0  0  0  0  0  0  0  0
    9.0730   -0.1530    0.0000 H   0  0  0  0  0  0  0  0  0  0  0  0
    3.5313    1.9147    0.0000 H   0  0  0  0  0  0  0  0  0  0  0  0
    7.7862    1.4138    0.0000 H   0  0  0  0  0  0  0  0  0  0  0  0
    7.7403    2.2894    0.0000 H   0  0  0  0  0  0  0  0  0  0  0  0
    6.8647    2.2435    0.0000 H   0  0  0  0  0  0  0  0  0  0  0  0
    2.5152   -1.2218    0.0000 H   0  0  0  0  0  0  0  0  0  0  0  0
    1.9056    1.5808    0.0000 H   0  0  0  0  0  0  0  0  0  0  0  0
    1.3942    0.0020    0.0000 H   0  0  0  0  0  0  0  0  0  0  0  0
  1  3  1  0  0  0  0
  1  7  1  0  0  0  0
  2  4  1  0  0  0  0
  2 11  1  0  0  0  0
  2 24  1  0  0  0  0
  3 10  1  0  0  0  0
  3 14  1  0  0  0  0
  3 15  1  0  0  0  0
  4  5  1  0  0  0  0
  4  6  2  0  0  0  0
  5  7  2  0  0  0  0
  5 13  1  0  0  0  0
  6  8  1  0  0  0  0
  6 12  1  0  0  0  0
  7  9  1  0  0  0  0
  8 11  1  0  0  0  0
  8 16  2  0  0  0  0
  9 12  2  0  0  0  0
  9 17  1  0  0  0  0
 10 13  2  0  0  0  0
 10 21  1  0  0  0  0
 11 18  2  0  0  0  0
 12 23  1  0  0  0  0
 13 22  1  0  0  0  0
 14 25  1  0  0  0  0
 14 26  1  0  0  0  0
 14 27  1  0  0  0  0
 15 28  1  0  0  0  0
 15 29  1  0  0  0  0
 15 30  1  0  0  0  0
 16 19  1  0  0  0  0
 16 31  1  0  0  0  0
 17 32  1  0  0  0  0
 17 33  1  0  0  0  0
 17 34  1  0  0  0  0
 18 20  1  0  0  0  0
 18 35  1  0  0  0  0
 19 20  2  0  0  0  0
 19 36  1  0  0  0  0
 20 37  1  0  0  0  0
M  END
> <PUBCHEM_COMPOUND_CID>
96943

> <PUBCHEM_COMPOUND_CANONICALIZED>
1

> <PUBCHEM_CACTVS_COMPLEXITY>
416

> <PUBCHEM_CACTVS_HBOND_ACCEPTOR>
1

> <PUBCHEM_CACTVS_HBOND_DONOR>
1

> <PUBCHEM_CACTVS_ROTATABLE_BOND>
0

> <PUBCHEM_CACTVS_SUBSKEYS>
AAADceB6IAAAAAAAAAAAAAAAAAAAAWAAAAAwYIAAAAAAAFiB/AAAHgAQAAAADEyBngAyxvLJlACgAyRiRACCiCAhIiAImSA0bJgMJuLEsZuGOCjm0BnI6AeQ0PMOqAACAgAKAABQAAQEABQAAAAAAAAAAA==

> <PUBCHEM_IUPAC_OPENEYE_NAME>
3,3,5-trimethyl-11H-pyrano[3,2-a]carbazole

> <PUBCHEM_IUPAC_CAS_NAME>
3,3,5-trimethyl-11H-pyrano[3,2-a]carbazole

> <PUBCHEM_IUPAC_NAME_MARKUP>
3,3,5-trimethyl-11<I>H</I>-pyrano[3,2-a]carbazole

> <PUBCHEM_IUPAC_NAME>
3,3,5-trimethyl-11H-pyrano[3,2-a]carbazole

> <PUBCHEM_IUPAC_SYSTEMATIC_NAME>
3,3,5-trimethyl-11H-pyrano[3,2-a]carbazole

> <PUBCHEM_IUPAC_TRADITIONAL_NAME>
3,3,5-trimethyl-11H-pyrano[3,2-a]carbazole

> <PUBCHEM_IUPAC_INCHI>
InChI=1S/C18H17NO/c1-11-10-14-12-6-4-5-7-15(12)19-16(14)13-8-9-18(2,3)20-17(11)13/h4-10,19H,1-3H3

> <PUBCHEM_IUPAC_INCHIKEY>
GAEQWKVGMHUUKO-UHFFFAOYSA-N

> <PUBCHEM_XLOGP3_AA>
4.7

> <PUBCHEM_EXACT_MASS>
263.131014166

> <PUBCHEM_MOLECULAR_FORMULA>
C18H17NO

> <PUBCHEM_MOLECULAR_WEIGHT>
263.3

> <PUBCHEM_SMILES>
CC1=CC2=C(C3=C1OC(C=C3)(C)C)NC4=CC=CC=C42

> <PUBCHEM_CONNECTIVITY_SMILES>
CC1=CC2=C(C3=C1OC(C=C3)(C)C)NC4=CC=CC=C42

> <PUBCHEM_CACTVS_TPSA>
25

> <PUBCHEM_MONOISOTOPIC_WEIGHT>
263.131014166

> <PUBCHEM_TOTAL_CHARGE>
0

> <PUBCHEM_HEAVY_ATOM_COUNT>
20

> <PUBCHEM_ATOM_DEF_STEREO_COUNT>
0

> <PUBCHEM_ATOM_UDEF_STEREO_COUNT>
0

> <PUBCHEM_BOND_DEF_STEREO_COUNT>
0

> <PUBCHEM_BOND_UDEF_STEREO_COUNT>
0

> <PUBCHEM_ISOTOPIC_ATOM_COUNT>
0

> <PUBCHEM_COMPONENT_COUNT>
1

> <PUBCHEM_CACTVS_TAUTO_COUNT>
-1

> <PUBCHEM_COORDINATE_TYPE>
1
5
255

> <PUBCHEM_BONDANNOTATIONS>
11  18  8
16  19  8
18  20  8
19  20  8
2  11  8
2  4  8
4  5  8
4  6  8
5  7  8
6  12  8
6  8  8
7  9  8
8  11  8
8  16  8
9  12  8

$$$$
