189176
  -OEChem-01202622222D

 45 47  0     1  0  0  0  0  0999 V2000
    3.7981    0.2673    0.0000 O   0  0  0  0  0  0  0  0  0  0  0  0
    5.5301    2.2673    0.0000 O   0  0  0  0  0  0  0  0  0  0  0  0
    2.9321    1.7673    0.0000 O   0  0  0  0  0  0  0  0  0  0  0  0
    7.2785   -3.7673    0.0000 O   0  0  0  0  0  0  0  0  0  0  0  0
    2.9321    3.7673    0.0000 O   0  0  0  0  0  0  0  0  0  0  0  0
    9.0603   -0.7086    0.0000 O   0  0  0  0  0  0  0  0  0  0  0  0
    5.5301   -0.7327    0.0000 N   0  0  0  0  0  0  0  0  0  0  0  0
    5.5301   -2.7327    0.0000 N   0  0  0  0  0  0  0  0  0  0  0  0
    7.2901   -0.6980    0.0000 N   0  0  0  0  0  0  0  0  0  0  0  0
    8.1962   -2.2535    0.0000 N   0  0  0  0  0  0  0  0  0  0  0  0
    4.6641    0.7673    0.0000 C   0  0  1  0  0  0  0  0  0  0  0  0
    5.5301    0.2673    0.0000 C   0  0  0  0  0  0  0  0  0  0  0  0
    4.6641    1.7673    0.0000 C   0  0  1  0  0  0  0  0  0  0  0  0
    4.6641   -1.2327    0.0000 C   0  0  0  0  0  0  0  0  0  0  0  0
    6.3962   -1.2327    0.0000 C   0  0  0  0  0  0  0  0  0  0  0  0
    4.6641   -2.2327    0.0000 C   0  0  0  0  0  0  0  0  0  0  0  0
    3.7981    2.2673    0.0000 C   0  0  1  0  0  0  0  0  0  0  0  0
    3.7702   -0.6980    0.0000 C   0  0  0  0  0  0  0  0  0  0  0  0
    6.3962   -2.2327    0.0000 C   0  0  0  0  0  0  0  0  0  0  0  0
    2.8641   -1.2119    0.0000 C   0  0  0  0  0  0  0  0  0  0  0  0
    2.8641   -2.2535    0.0000 C   0  0  0  0  0  0  0  0  0  0  0  0
    3.7702   -2.7674    0.0000 C   0  0  0  0  0  0  0  0  0  0  0  0
    7.2901   -2.7674    0.0000 C   0  0  0  0  0  0  0  0  0  0  0  0
    2.0000   -0.7086    0.0000 C   0  0  0  0  0  0  0  0  0  0  0  0
    3.7981    3.2673    0.0000 C   0  0  0  0  0  0  0  0  0  0  0  0
    2.0000   -2.7569    0.0000 C   0  0  0  0  0  0  0  0  0  0  0  0
    8.1962   -1.2119    0.0000 C   0  0  0  0  0  0  0  0  0  0  0  0
    4.6641    0.1473    0.0000 H   0  0  0  0  0  0  0  0  0  0  0  0
    6.1407    0.1596    0.0000 H   0  0  0  0  0  0  0  0  0  0  0  0
    5.7422    0.8499    0.0000 H   0  0  0  0  0  0  0  0  0  0  0  0
    4.6641    2.3873    0.0000 H   0  0  0  0  0  0  0  0  0  0  0  0
    3.7981    1.6473    0.0000 H   0  0  0  0  0  0  0  0  0  0  0  0
    3.7773   -0.0781    0.0000 H   0  0  0  0  0  0  0  0  0  0  0  0
    3.7773   -3.3873    0.0000 H   0  0  0  0  0  0  0  0  0  0  0  0
    3.2611    0.5773    0.0000 H   0  0  0  0  0  0  0  0  0  0  0  0
    5.5301    2.8873    0.0000 H   0  0  0  0  0  0  0  0  0  0  0  0
    2.3121   -0.1728    0.0000 H   0  0  0  0  0  0  0  0  0  0  0  0
    1.4643   -0.3965    0.0000 H   0  0  0  0  0  0  0  0  0  0  0  0
    1.6879   -1.2443    0.0000 H   0  0  0  0  0  0  0  0  0  0  0  0
    4.3350    3.5773    0.0000 H   0  0  0  0  0  0  0  0  0  0  0  0
    1.6879   -2.2211    0.0000 H   0  0  0  0  0  0  0  0  0  0  0  0
    1.4643   -3.0689    0.0000 H   0  0  0  0  0  0  0  0  0  0  0  0
    2.3121   -3.2926    0.0000 H   0  0  0  0  0  0  0  0  0  0  0  0
    2.3951    2.0773    0.0000 H   0  0  0  0  0  0  0  0  0  0  0  0
    8.7319   -2.5656    0.0000 H   0  0  0  0  0  0  0  0  0  0  0  0
 11  1  1  6  0  0  0
  1 35  1  0  0  0  0
 13  2  1  1  0  0  0
  2 36  1  0  0  0  0
 17  3  1  6  0  0  0
  3 44  1  0  0  0  0
  4 23  2  0  0  0  0
  5 25  2  0  0  0  0
  6 27  2  0  0  0  0
  7 12  1  0  0  0  0
  7 14  1  0  0  0  0
  7 15  1  0  0  0  0
  8 16  1  0  0  0  0
  8 19  2  0  0  0  0
  9 15  2  0  0  0  0
  9 27  1  0  0  0  0
 10 23  1  0  0  0  0
 10 27  1  0  0  0  0
 10 45  1  0  0  0  0
 11 12  1  0  0  0  0
 11 13  1  0  0  0  0
 11 28  1  0  0  0  0
 12 29  1  0  0  0  0
 12 30  1  0  0  0  0
 13 17  1  0  0  0  0
 13 31  1  0  0  0  0
 14 16  2  0  0  0  0
 14 18  1  0  0  0  0
 15 19  1  0  0  0  0
 16 22  1  0  0  0  0
 17 25  1  0  0  0  0
 17 32  1  0  0  0  0
 18 20  2  0  0  0  0
 18 33  1  0  0  0  0
 19 23  1  0  0  0  0
 20 21  1  0  0  0  0
 20 24  1  0  0  0  0
 21 22  2  0  0  0  0
 21 26  1  0  0  0  0
 22 34  1  0  0  0  0
 24 37  1  0  0  0  0
 24 38  1  0  0  0  0
 24 39  1  0  0  0  0
 25 40  1  0  0  0  0
 26 41  1  0  0  0  0
 26 42  1  0  0  0  0
 26 43  1  0  0  0  0
M  END
> <PUBCHEM_COMPOUND_CID>
189176

> <PUBCHEM_COMPOUND_CANONICALIZED>
1

> <PUBCHEM_CACTVS_COMPLEXITY>
708

> <PUBCHEM_CACTVS_HBOND_ACCEPTOR>
7

> <PUBCHEM_CACTVS_HBOND_DONOR>
4

> <PUBCHEM_CACTVS_ROTATABLE_BOND>
5

> <PUBCHEM_CACTVS_SUBSKEYS>
AAADceB7uAAAAAAAAAAAAAAAAAAAAAAAAAAwQIAAAAAAAACBAAAAHgAQCAAADBzhmAYzwIPAAgCoAy9y9AKCAAEhAgABiAFodIiLcD7A2ZGUYAhnpSLZyAc6gYAOiAAAQAAQACAQAACAACAAQAAAAAAAAA==

> <PUBCHEM_IUPAC_OPENEYE_NAME>
(2S,3S,4S)-5-(7,8-dimethyl-2,4-dioxo-benzo[g]pteridin-10-yl)-2,3,4-trihydroxy-pentanal

> <PUBCHEM_IUPAC_CAS_NAME>
(2S,3S,4S)-5-(7,8-dimethyl-2,4-dioxo-10-benzo[g]pteridinyl)-2,3,4-trihydroxypentanal

> <PUBCHEM_IUPAC_NAME_MARKUP>
(2<I>S</I>,3<I>S</I>,4<I>S</I>)-5-(7,8-dimethyl-2,4-dioxobenzo[g]pteridin-10-yl)-2,3,4-trihydroxypentanal

> <PUBCHEM_IUPAC_NAME>
(2S,3S,4S)-5-(7,8-dimethyl-2,4-dioxobenzo[g]pteridin-10-yl)-2,3,4-trihydroxypentanal

> <PUBCHEM_IUPAC_SYSTEMATIC_NAME>
(2S,3S,4S)-5-[7,8-dimethyl-2,4-bis(oxidanylidene)benzo[g]pteridin-10-yl]-2,3,4-tris(oxidanyl)pentanal

> <PUBCHEM_IUPAC_TRADITIONAL_NAME>
(2S,3S,4S)-5-(2,4-diketo-7,8-dimethyl-benzo[g]pteridin-10-yl)-2,3,4-trihydroxy-valeraldehyde

> <PUBCHEM_IUPAC_INCHI>
InChI=1S/C17H18N4O6/c1-7-3-9-10(4-8(7)2)21(5-11(23)14(25)12(24)6-22)15-13(18-9)16(26)20-17(27)19-15/h3-4,6,11-12,14,23-25H,5H2,1-2H3,(H,20,26,27)/t11-,12+,14-/m0/s1

> <PUBCHEM_IUPAC_INCHIKEY>
AKNLJHKUYXCPKI-SCRDCRAPSA-N

> <PUBCHEM_XLOGP3>
-1.3

> <PUBCHEM_EXACT_MASS>
374.12263431

> <PUBCHEM_MOLECULAR_FORMULA>
C17H18N4O6

> <PUBCHEM_MOLECULAR_WEIGHT>
374.3

> <PUBCHEM_SMILES>
CC1=CC2=C(C=C1C)N(C3=NC(=O)NC(=O)C3=N2)C[C@@H]([C@@H]([C@@H](C=O)O)O)O

> <PUBCHEM_CONNECTIVITY_SMILES>
CC1=CC2=C(C=C1C)N(C3=NC(=O)NC(=O)C3=N2)CC(C(C(C=O)O)O)O

> <PUBCHEM_CACTVS_TPSA>
152

> <PUBCHEM_MONOISOTOPIC_WEIGHT>
374.12263431

> <PUBCHEM_TOTAL_CHARGE>
0

> <PUBCHEM_HEAVY_ATOM_COUNT>
27

> <PUBCHEM_ATOM_DEF_STEREO_COUNT>
3

> <PUBCHEM_ATOM_UDEF_STEREO_COUNT>
0

> <PUBCHEM_BOND_DEF_STEREO_COUNT>
0

> <PUBCHEM_BOND_UDEF_STEREO_COUNT>
0

> <PUBCHEM_ISOTOPIC_ATOM_COUNT>
0

> <PUBCHEM_COMPONENT_COUNT>
1

> <PUBCHEM_CACTVS_TAUTO_COUNT>
-1

> <PUBCHEM_COORDINATE_TYPE>
1
5
255

> <PUBCHEM_BONDANNOTATIONS>
11  1  6
10  23  8
10  27  8
14  16  8
14  18  8
16  22  8
18  20  8
19  23  8
13  2  5
20  21  8
21  22  8
17  3  6
7  14  8
7  15  8
8  16  8
8  19  8
9  15  8
9  27  8

$$$$
