134160269
  -OEChem-01202622402D

 55 55  0     1  0  0  0  0  0999 V2000
    6.3301   -1.8450    0.0000 S   0  0  0  0  0  0  0  0  0  0  0  0
    2.8660    4.1550    0.0000 S   0  0  3  0  0  0  0  0  0  0  0  0
    8.0622    1.1550    0.0000 S   0  0  0  0  0  0  0  0  0  0  0  0
    4.5981   -1.8450    0.0000 O   0  0  0  0  0  0  0  0  0  0  0  0
    4.5981   -4.8450    0.0000 O   0  0  0  0  0  0  0  0  0  0  0  0
    2.8660   -3.8450    0.0000 O   0  0  0  0  0  0  0  0  0  0  0  0
    6.3301   -3.8450    0.0000 O   0  0  0  0  0  0  0  0  0  0  0  0
    2.8660   -0.8450    0.0000 O   0  0  0  0  0  0  0  0  0  0  0  0
    7.1962    0.6550    0.0000 O   0  0  0  0  0  0  0  0  0  0  0  0
    2.0000    3.6550    0.0000 O   0  0  0  0  0  0  0  0  0  0  0  0
    8.9282    1.6550    0.0000 O   0  0  0  0  0  0  0  0  0  0  0  0
    7.5622    2.0210    0.0000 O   0  0  0  0  0  0  0  0  0  0  0  0
    8.5622    0.2890    0.0000 O   0  0  0  0  0  0  0  0  0  0  0  0
    7.1962   -0.3450    0.0000 N   0  0  0  0  0  0  0  0  0  0  0  0
    4.5981   -3.8450    0.0000 C   0  0  1  0  0  0  0  0  0  0  0  0
    3.7320   -3.3450    0.0000 C   0  0  1  0  0  0  0  0  0  0  0  0
    5.4641   -3.3450    0.0000 C   0  0  2  0  0  0  0  0  0  0  0  0
    3.7320   -2.3450    0.0000 C   0  0  1  0  0  0  0  0  0  0  0  0
    5.4641   -2.3450    0.0000 C   0  0  2  0  0  0  0  0  0  0  0  0
    2.8660   -1.8450    0.0000 C   0  0  0  0  0  0  0  0  0  0  0  0
    5.4641   -0.3450    0.0000 C   0  0  0  0  0  0  0  0  0  0  0  0
    6.3301   -0.8450    0.0000 C   0  0  0  0  0  0  0  0  0  0  0  0
    5.4641    0.6550    0.0000 C   0  0  0  0  0  0  0  0  0  0  0  0
    4.5981    1.1550    0.0000 C   0  0  0  0  0  0  0  0  0  0  0  0
    4.5981    2.1550    0.0000 C   0  0  0  0  0  0  0  0  0  0  0  0
    3.7320    2.6550    0.0000 C   0  0  0  0  0  0  0  0  0  0  0  0
    3.7320    3.6550    0.0000 C   0  0  0  0  0  0  0  0  0  0  0  0
    2.8660    5.1550    0.0000 C   0  0  0  0  0  0  0  0  0  0  0  0
    4.0611   -4.1550    0.0000 H   0  0  0  0  0  0  0  0  0  0  0  0
    3.7320   -3.9650    0.0000 H   0  0  0  0  0  0  0  0  0  0  0  0
    5.4641   -3.9650    0.0000 H   0  0  0  0  0  0  0  0  0  0  0  0
    3.7320   -1.7250    0.0000 H   0  0  0  0  0  0  0  0  0  0  0  0
    5.4641   -1.7250    0.0000 H   0  0  0  0  0  0  0  0  0  0  0  0
    2.2554   -1.7373    0.0000 H   0  0  0  0  0  0  0  0  0  0  0  0
    2.6540   -2.4276    0.0000 H   0  0  0  0  0  0  0  0  0  0  0  0
    4.0611   -5.1550    0.0000 H   0  0  0  0  0  0  0  0  0  0  0  0
    2.3291   -3.5350    0.0000 H   0  0  0  0  0  0  0  0  0  0  0  0
    6.8671   -3.5350    0.0000 H   0  0  0  0  0  0  0  0  0  0  0  0
    4.8535   -0.2373    0.0000 H   0  0  0  0  0  0  0  0  0  0  0  0
    5.2520   -0.9276    0.0000 H   0  0  0  0  0  0  0  0  0  0  0  0
    6.0747    0.5473    0.0000 H   0  0  0  0  0  0  0  0  0  0  0  0
    5.6762    1.2376    0.0000 H   0  0  0  0  0  0  0  0  0  0  0  0
    3.9875    1.2627    0.0000 H   0  0  0  0  0  0  0  0  0  0  0  0
    4.3860    0.5724    0.0000 H   0  0  0  0  0  0  0  0  0  0  0  0
    5.2087    2.0473    0.0000 H   0  0  0  0  0  0  0  0  0  0  0  0
    4.8101    2.7376    0.0000 H   0  0  0  0  0  0  0  0  0  0  0  0
    3.1215    2.7627    0.0000 H   0  0  0  0  0  0  0  0  0  0  0  0
    3.5200    2.0724    0.0000 H   0  0  0  0  0  0  0  0  0  0  0  0
    2.3291   -0.5350    0.0000 H   0  0  0  0  0  0  0  0  0  0  0  0
    4.3426    3.5473    0.0000 H   0  0  0  0  0  0  0  0  0  0  0  0
    3.9441    4.2376    0.0000 H   0  0  0  0  0  0  0  0  0  0  0  0
    3.4860    5.1550    0.0000 H   0  0  0  0  0  0  0  0  0  0  0  0
    2.8660    5.7750    0.0000 H   0  0  0  0  0  0  0  0  0  0  0  0
    2.2460    5.1550    0.0000 H   0  0  0  0  0  0  0  0  0  0  0  0
    8.9282    2.2750    0.0000 H   0  0  0  0  0  0  0  0  0  0  0  0
 19  1  1  1  0  0  0
  1 22  1  0  0  0  0
  2 10  2  0  0  0  0
  2 27  1  0  0  0  0
  2 28  1  0  0  0  0
  3  9  1  0  0  0  0
  3 11  1  0  0  0  0
  3 12  2  0  0  0  0
  3 13  2  0  0  0  0
  4 18  1  0  0  0  0
  4 19  1  0  0  0  0
 15  5  1  1  0  0  0
  5 36  1  0  0  0  0
 16  6  1  6  0  0  0
  6 37  1  0  0  0  0
 17  7  1  6  0  0  0
  7 38  1  0  0  0  0
  8 20  1  0  0  0  0
  8 49  1  0  0  0  0
  9 14  1  0  0  0  0
 11 55  1  0  0  0  0
 14 22  2  3  0  0  0
 15 16  1  0  0  0  0
 15 17  1  0  0  0  0
 15 29  1  0  0  0  0
 16 18  1  0  0  0  0
 16 30  1  0  0  0  0
 17 19  1  0  0  0  0
 17 31  1  0  0  0  0
 18 20  1  1  0  0  0
 18 32  1  0  0  0  0
 19 33  1  0  0  0  0
 20 34  1  0  0  0  0
 20 35  1  0  0  0  0
 21 22  1  0  0  0  0
 21 23  1  0  0  0  0
 21 39  1  0  0  0  0
 21 40  1  0  0  0  0
 23 24  1  0  0  0  0
 23 41  1  0  0  0  0
 23 42  1  0  0  0  0
 24 25  1  0  0  0  0
 24 43  1  0  0  0  0
 24 44  1  0  0  0  0
 25 26  1  0  0  0  0
 25 45  1  0  0  0  0
 25 46  1  0  0  0  0
 26 27  1  0  0  0  0
 26 47  1  0  0  0  0
 26 48  1  0  0  0  0
 27 50  1  0  0  0  0
 27 51  1  0  0  0  0
 28 52  1  0  0  0  0
 28 53  1  0  0  0  0
 28 54  1  0  0  0  0
M  END
> <PUBCHEM_COMPOUND_CID>
134160269

> <PUBCHEM_COMPOUND_CANONICALIZED>
1

> <PUBCHEM_CACTVS_COMPLEXITY>
623

> <PUBCHEM_CACTVS_HBOND_ACCEPTOR>
13

> <PUBCHEM_CACTVS_HBOND_DONOR>
5

> <PUBCHEM_CACTVS_ROTATABLE_BOND>
12

> <PUBCHEM_CACTVS_SUBSKEYS>
AAADceByPABgAAAAAAAAAAAAAAAAAAAAAAAkAAAAAAAAAAAAAAAAHgQECAAACBSlwAKCAAAQBoogAAAgAHBAAAAAABAAAAAwAAABEAIgAAACQAAFAAAjAAHA4AQAAAAAAAAAAAAAAAAAAAAAAAAAAAAAAA==

> <PUBCHEM_IUPAC_OPENEYE_NAME>
[(2S,3R,4S,5S,6R)-3,4,5-trihydroxy-6-(hydroxymethyl)tetrahydropyran-2-yl] 7-methylsulfinyl-N-sulfooxy-heptanimidothioate

> <PUBCHEM_IUPAC_CAS_NAME>
7-methylsulfinyl-N-sulfooxyheptanimidothioic acid [(2S,3R,4S,5S,6R)-3,4,5-trihydroxy-6-(hydroxymethyl)-2-oxanyl] ester

> <PUBCHEM_IUPAC_NAME_MARKUP>
[(2<I>S</I>,3<I>R</I>,4<I>S</I>,5<I>S</I>,6<I>R</I>)-3,4,5-trihydroxy-6-(hydroxymethyl)oxan-2-yl] 7-methylsulfinyl-<I>N</I>-sulfooxyheptanimidothioate

> <PUBCHEM_IUPAC_NAME>
[(2S,3R,4S,5S,6R)-3,4,5-trihydroxy-6-(hydroxymethyl)oxan-2-yl] 7-methylsulfinyl-N-sulfooxyheptanimidothioate

> <PUBCHEM_IUPAC_SYSTEMATIC_NAME>
[(2S,3R,4S,5S,6R)-6-(hydroxymethyl)-3,4,5-tris(oxidanyl)oxan-2-yl] 7-methylsulfinyl-N-sulfooxy-heptanimidothioate

> <PUBCHEM_IUPAC_TRADITIONAL_NAME>
7-methylsulfinyl-N-sulfoxy-thioenanthimidic acid [(2S,3R,4S,5S,6R)-3,4,5-trihydroxy-6-methylol-tetrahydropyran-2-yl] ester

> <PUBCHEM_IUPAC_INCHI>
InChI=1S/C14H27NO10S3/c1-27(20)7-5-3-2-4-6-10(15-25-28(21,22)23)26-14-13(19)12(18)11(17)9(8-16)24-14/h9,11-14,16-19H,2-8H2,1H3,(H,21,22,23)/t9-,11-,12+,13-,14+,27?/m1/s1

> <PUBCHEM_IUPAC_INCHIKEY>
OOGAQHVYHLPICD-DNDZILKHSA-N

> <PUBCHEM_XLOGP3_AA>
-1.2

> <PUBCHEM_EXACT_MASS>
465.07970958

> <PUBCHEM_MOLECULAR_FORMULA>
C14H27NO10S3

> <PUBCHEM_MOLECULAR_WEIGHT>
465.6

> <PUBCHEM_SMILES>
CS(=O)CCCCCCC(=NOS(=O)(=O)O)S[C@H]1[C@@H]([C@H]([C@@H]([C@H](O1)CO)O)O)O

> <PUBCHEM_CONNECTIVITY_SMILES>
CS(=O)CCCCCCC(=NOS(=O)(=O)O)SC1C(C(C(C(O1)CO)O)O)O

> <PUBCHEM_CACTVS_TPSA>
236

> <PUBCHEM_MONOISOTOPIC_WEIGHT>
465.07970958

> <PUBCHEM_TOTAL_CHARGE>
0

> <PUBCHEM_HEAVY_ATOM_COUNT>
28

> <PUBCHEM_ATOM_DEF_STEREO_COUNT>
5

> <PUBCHEM_ATOM_UDEF_STEREO_COUNT>
1

> <PUBCHEM_BOND_DEF_STEREO_COUNT>
0

> <PUBCHEM_BOND_UDEF_STEREO_COUNT>
1

> <PUBCHEM_ISOTOPIC_ATOM_COUNT>
0

> <PUBCHEM_COMPONENT_COUNT>
1

> <PUBCHEM_CACTVS_TAUTO_COUNT>
-1

> <PUBCHEM_COORDINATE_TYPE>
1
5
255

> <PUBCHEM_BONDANNOTATIONS>
19  1  5
14  22  1
18  20  5
2  28  3
15  5  5
16  6  6
17  7  6

$$$$
