12315460
  -OEChem-01202622372D

 56 57  0     0  0  0  0  0  0999 V2000
    5.4641   -0.0600    0.0000 O   0  0  0  0  0  0  0  0  0  0  0  0
    7.1962   -1.0600    0.0000 O   0  0  0  0  0  0  0  0  0  0  0  0
    5.4641    1.9400    0.0000 O   0  0  0  0  0  0  0  0  0  0  0  0
    2.0000   -3.0600    0.0000 O   0  0  0  0  0  0  0  0  0  0  0  0
    5.4641   -3.0600    0.0000 O   0  0  0  0  0  0  0  0  0  0  0  0
    6.3301   -1.5600    0.0000 O   0  0  0  0  0  0  0  0  0  0  0  0
    8.0622    3.4400    0.0000 O   0  0  0  0  0  0  0  0  0  0  0  0
    6.3301    3.4400    0.0000 O   0  0  0  0  0  0  0  0  0  0  0  0
    8.0622    1.4400    0.0000 C   0  0  0  0  0  0  0  0  0  0  0  0
    8.9282    1.9400    0.0000 C   0  0  0  0  0  0  0  0  0  0  0  0
    3.7321   -0.0600    0.0000 C   0  0  0  0  0  0  0  0  0  0  0  0
    3.7321   -1.0600    0.0000 C   0  0  0  0  0  0  0  0  0  0  0  0
    9.7942    1.4400    0.0000 C   0  0  0  0  0  0  0  0  0  0  0  0
    7.1962    1.9400    0.0000 C   0  0  0  0  0  0  0  0  0  0  0  0
    4.5981   -1.5600    0.0000 C   0  0  0  0  0  0  0  0  0  0  0  0
    2.8660    0.4400    0.0000 C   0  0  0  0  0  0  0  0  0  0  0  0
    8.0622    0.4400    0.0000 C   0  0  0  0  0  0  0  0  0  0  0  0
    6.3301    0.4400    0.0000 C   0  0  0  0  0  0  0  0  0  0  0  0
    6.3301    1.4400    0.0000 C   0  0  0  0  0  0  0  0  0  0  0  0
    7.1962   -0.0600    0.0000 C   0  0  0  0  0  0  0  0  0  0  0  0
    2.8660   -1.5600    0.0000 C   0  0  0  0  0  0  0  0  0  0  0  0
    4.5981   -2.5600    0.0000 C   0  0  0  0  0  0  0  0  0  0  0  0
    5.4641   -1.0600    0.0000 C   0  0  0  0  0  0  0  0  0  0  0  0
    2.8660   -2.5600    0.0000 C   0  0  0  0  0  0  0  0  0  0  0  0
   10.6603    1.9400    0.0000 C   0  0  0  0  0  0  0  0  0  0  0  0
    3.7321   -3.0600    0.0000 C   0  0  0  0  0  0  0  0  0  0  0  0
    2.8660    1.4400    0.0000 C   0  0  0  0  0  0  0  0  0  0  0  0
    7.1962    2.9400    0.0000 C   0  0  0  0  0  0  0  0  0  0  0  0
    8.0622   -1.5600    0.0000 C   0  0  0  0  0  0  0  0  0  0  0  0
    2.0000   -4.0600    0.0000 C   0  0  0  0  0  0  0  0  0  0  0  0
    9.3267    2.4150    0.0000 H   0  0  0  0  0  0  0  0  0  0  0  0
    8.5297    2.4150    0.0000 H   0  0  0  0  0  0  0  0  0  0  0  0
    4.3426   -0.1677    0.0000 H   0  0  0  0  0  0  0  0  0  0  0  0
    3.9441    0.5226    0.0000 H   0  0  0  0  0  0  0  0  0  0  0  0
    9.3957    0.9651    0.0000 H   0  0  0  0  0  0  0  0  0  0  0  0
   10.1928    0.9651    0.0000 H   0  0  0  0  0  0  0  0  0  0  0  0
    2.2554    0.5477    0.0000 H   0  0  0  0  0  0  0  0  0  0  0  0
    2.6540   -0.1426    0.0000 H   0  0  0  0  0  0  0  0  0  0  0  0
    8.5991    0.1300    0.0000 H   0  0  0  0  0  0  0  0  0  0  0  0
    2.3291   -1.2500    0.0000 H   0  0  0  0  0  0  0  0  0  0  0  0
   10.9703    1.4031    0.0000 H   0  0  0  0  0  0  0  0  0  0  0  0
   11.1972    2.2500    0.0000 H   0  0  0  0  0  0  0  0  0  0  0  0
   10.3503    2.4769    0.0000 H   0  0  0  0  0  0  0  0  0  0  0  0
    3.7321   -3.6800    0.0000 H   0  0  0  0  0  0  0  0  0  0  0  0
    3.4860    1.4400    0.0000 H   0  0  0  0  0  0  0  0  0  0  0  0
    2.8660    2.0600    0.0000 H   0  0  0  0  0  0  0  0  0  0  0  0
    2.2460    1.4400    0.0000 H   0  0  0  0  0  0  0  0  0  0  0  0
    4.9272    1.6300    0.0000 H   0  0  0  0  0  0  0  0  0  0  0  0
    5.4641   -3.6800    0.0000 H   0  0  0  0  0  0  0  0  0  0  0  0
    7.7522   -2.0969    0.0000 H   0  0  0  0  0  0  0  0  0  0  0  0
    8.5991   -1.8700    0.0000 H   0  0  0  0  0  0  0  0  0  0  0  0
    8.3722   -1.0231    0.0000 H   0  0  0  0  0  0  0  0  0  0  0  0
    8.0622    4.0600    0.0000 H   0  0  0  0  0  0  0  0  0  0  0  0
    1.3800   -4.0600    0.0000 H   0  0  0  0  0  0  0  0  0  0  0  0
    2.0000   -4.6800    0.0000 H   0  0  0  0  0  0  0  0  0  0  0  0
    2.6200   -4.0600    0.0000 H   0  0  0  0  0  0  0  0  0  0  0  0
  1 18  1  0  0  0  0
  1 23  1  0  0  0  0
  2 20  1  0  0  0  0
  2 29  1  0  0  0  0
  3 19  1  0  0  0  0
  3 48  1  0  0  0  0
  4 24  1  0  0  0  0
  4 30  1  0  0  0  0
  5 22  1  0  0  0  0
  5 49  1  0  0  0  0
  6 23  2  0  0  0  0
  7 28  1  0  0  0  0
  7 53  1  0  0  0  0
  8 28  2  0  0  0  0
  9 10  1  0  0  0  0
  9 14  1  0  0  0  0
  9 17  2  0  0  0  0
 10 13  1  0  0  0  0
 10 31  1  0  0  0  0
 10 32  1  0  0  0  0
 11 12  1  0  0  0  0
 11 16  1  0  0  0  0
 11 33  1  0  0  0  0
 11 34  1  0  0  0  0
 12 15  2  0  0  0  0
 12 21  1  0  0  0  0
 13 25  1  0  0  0  0
 13 35  1  0  0  0  0
 13 36  1  0  0  0  0
 14 19  2  0  0  0  0
 14 28  1  0  0  0  0
 15 22  1  0  0  0  0
 15 23  1  0  0  0  0
 16 27  1  0  0  0  0
 16 37  1  0  0  0  0
 16 38  1  0  0  0  0
 17 20  1  0  0  0  0
 17 39  1  0  0  0  0
 18 19  1  0  0  0  0
 18 20  2  0  0  0  0
 21 24  2  0  0  0  0
 21 40  1  0  0  0  0
 22 26  2  0  0  0  0
 24 26  1  0  0  0  0
 25 41  1  0  0  0  0
 25 42  1  0  0  0  0
 25 43  1  0  0  0  0
 26 44  1  0  0  0  0
 27 45  1  0  0  0  0
 27 46  1  0  0  0  0
 27 47  1  0  0  0  0
 29 50  1  0  0  0  0
 29 51  1  0  0  0  0
 29 52  1  0  0  0  0
 30 54  1  0  0  0  0
 30 55  1  0  0  0  0
 30 56  1  0  0  0  0
M  END
> <PUBCHEM_COMPOUND_CID>
12315460

> <PUBCHEM_COMPOUND_CANONICALIZED>
1

> <PUBCHEM_CACTVS_COMPLEXITY>
567

> <PUBCHEM_CACTVS_HBOND_ACCEPTOR>
8

> <PUBCHEM_CACTVS_HBOND_DONOR>
3

> <PUBCHEM_CACTVS_ROTATABLE_BOND>
10

> <PUBCHEM_CACTVS_SUBSKEYS>
AAADceB4PAAAAAAAAAAAAAAAAAAAAAAAAAAwYAAAAAAAAAABQAAAGgAACAAADASAmAIyDoAABgCIAiDSCAACCAAkIAAAiAEGiMgNJzaGNRqCe2Ol4BULuQfK7LzOoAABCAAYQABAAAIQADCAAAAAAAAAAA==

> <PUBCHEM_IUPAC_OPENEYE_NAME>
2-hydroxy-3-(2-hydroxy-4-methoxy-6-propyl-benzoyl)oxy-4-methoxy-6-propyl-benzoic acid

> <PUBCHEM_IUPAC_CAS_NAME>
2-hydroxy-3-[(2-hydroxy-4-methoxy-6-propylphenyl)-oxomethoxy]-4-methoxy-6-propylbenzoic acid

> <PUBCHEM_IUPAC_NAME_MARKUP>
2-hydroxy-3-(2-hydroxy-4-methoxy-6-propylbenzoyl)oxy-4-methoxy-6-propylbenzoic acid

> <PUBCHEM_IUPAC_NAME>
2-hydroxy-3-(2-hydroxy-4-methoxy-6-propylbenzoyl)oxy-4-methoxy-6-propylbenzoic acid

> <PUBCHEM_IUPAC_SYSTEMATIC_NAME>
4-methoxy-3-(4-methoxy-2-oxidanyl-6-propyl-phenyl)carbonyloxy-2-oxidanyl-6-propyl-benzoic acid

> <PUBCHEM_IUPAC_TRADITIONAL_NAME>
2-hydroxy-3-(2-hydroxy-4-methoxy-6-propyl-benzoyl)oxy-4-methoxy-6-propyl-benzoic acid

> <PUBCHEM_IUPAC_INCHI>
InChI=1S/C22H26O8/c1-5-7-12-9-14(28-3)11-15(23)17(12)22(27)30-20-16(29-4)10-13(8-6-2)18(19(20)24)21(25)26/h9-11,23-24H,5-8H2,1-4H3,(H,25,26)

> <PUBCHEM_IUPAC_INCHIKEY>
CPHXGYQLOSNELY-UHFFFAOYSA-N

> <PUBCHEM_XLOGP3_AA>
5.9

> <PUBCHEM_EXACT_MASS>
418.16276778

> <PUBCHEM_MOLECULAR_FORMULA>
C22H26O8

> <PUBCHEM_MOLECULAR_WEIGHT>
418.4

> <PUBCHEM_SMILES>
CCCC1=CC(=C(C(=C1C(=O)O)O)OC(=O)C2=C(C=C(C=C2O)OC)CCC)OC

> <PUBCHEM_CONNECTIVITY_SMILES>
CCCC1=CC(=C(C(=C1C(=O)O)O)OC(=O)C2=C(C=C(C=C2O)OC)CCC)OC

> <PUBCHEM_CACTVS_TPSA>
123

> <PUBCHEM_MONOISOTOPIC_WEIGHT>
418.16276778

> <PUBCHEM_TOTAL_CHARGE>
0

> <PUBCHEM_HEAVY_ATOM_COUNT>
30

> <PUBCHEM_ATOM_DEF_STEREO_COUNT>
0

> <PUBCHEM_ATOM_UDEF_STEREO_COUNT>
0

> <PUBCHEM_BOND_DEF_STEREO_COUNT>
0

> <PUBCHEM_BOND_UDEF_STEREO_COUNT>
0

> <PUBCHEM_ISOTOPIC_ATOM_COUNT>
0

> <PUBCHEM_COMPONENT_COUNT>
1

> <PUBCHEM_CACTVS_TAUTO_COUNT>
-1

> <PUBCHEM_COORDINATE_TYPE>
1
5
255

> <PUBCHEM_BONDANNOTATIONS>
12  15  8
12  21  8
14  19  8
15  22  8
17  20  8
18  19  8
18  20  8
21  24  8
22  26  8
24  26  8
9  14  8
9  17  8

$$$$
