132514
  -OEChem-01202622212D

 42 44  0     0  0  0  0  0  0999 V2000
    6.6498    2.8145    0.0000 O   0  0  0  0  0  0  0  0  0  0  0  0
    8.3780   -0.4410    0.0000 O   0  0  0  0  0  0  0  0  0  0  0  0
    7.0864   -1.5950    0.0000 O   0  0  0  0  0  0  0  0  0  0  0  0
    4.5274    2.2155    0.0000 N   0  0  0  0  0  0  0  0  0  0  0  0
    5.0274    0.6766    0.0000 C   0  0  0  0  0  0  0  0  0  0  0  0
    5.7123   -0.1081    0.0000 C   0  0  0  0  0  0  0  0  0  0  0  0
    5.3364    1.6277    0.0000 C   0  0  0  0  0  0  0  0  0  0  0  0
    4.0274    0.6766    0.0000 C   0  0  0  0  0  0  0  0  0  0  0  0
    3.7183    1.6277    0.0000 C   0  0  0  0  0  0  0  0  0  0  0  0
    5.3923   -1.0556    0.0000 C   0  0  0  0  0  0  0  0  0  0  0  0
    6.7328    0.1006    0.0000 C   0  0  0  0  0  0  0  0  0  0  0  0
    6.3518    1.8599    0.0000 C   0  0  0  0  0  0  0  0  0  0  0  0
    7.0547    1.0912    0.0000 C   0  0  0  0  0  0  0  0  0  0  0  0
    3.3424   -0.1081    0.0000 C   0  0  0  0  0  0  0  0  0  0  0  0
    2.7029    1.8599    0.0000 C   0  0  0  0  0  0  0  0  0  0  0  0
    4.4119   -1.2521    0.0000 C   0  0  0  0  0  0  0  0  0  0  0  0
    2.3219    0.1006    0.0000 C   0  0  0  0  0  0  0  0  0  0  0  0
    2.0000    1.0912    0.0000 C   0  0  0  0  0  0  0  0  0  0  0  0
    7.3991   -0.6451    0.0000 C   0  0  0  0  0  0  0  0  0  0  0  0
    4.0919   -2.1996    0.0000 C   0  0  0  0  0  0  0  0  0  0  0  0
    3.1114   -2.3961    0.0000 C   0  0  0  0  0  0  0  0  0  0  0  0
    4.7524   -2.9504    0.0000 C   0  0  0  0  0  0  0  0  0  0  0  0
    9.0443   -1.1867    0.0000 C   0  0  0  0  0  0  0  0  0  0  0  0
    4.5274    2.8355    0.0000 H   0  0  0  0  0  0  0  0  0  0  0  0
    5.4068   -1.6754    0.0000 H   0  0  0  0  0  0  0  0  0  0  0  0
    6.0053   -1.1489    0.0000 H   0  0  0  0  0  0  0  0  0  0  0  0
    7.6607    1.2225    0.0000 H   0  0  0  0  0  0  0  0  0  0  0  0
    3.5408   -0.6955    0.0000 H   0  0  0  0  0  0  0  0  0  0  0  0
    2.5182    2.4517    0.0000 H   0  0  0  0  0  0  0  0  0  0  0  0
    4.0023   -0.7866    0.0000 H   0  0  0  0  0  0  0  0  0  0  0  0
    1.9088   -0.3618    0.0000 H   0  0  0  0  0  0  0  0  0  0  0  0
    1.3941    1.2225    0.0000 H   0  0  0  0  0  0  0  0  0  0  0  0
    7.2547    2.9504    0.0000 H   0  0  0  0  0  0  0  0  0  0  0  0
    2.9895   -1.7882    0.0000 H   0  0  0  0  0  0  0  0  0  0  0  0
    2.5035   -2.5180    0.0000 H   0  0  0  0  0  0  0  0  0  0  0  0
    3.2333   -3.0040    0.0000 H   0  0  0  0  0  0  0  0  0  0  0  0
    4.2868   -3.3599    0.0000 H   0  0  0  0  0  0  0  0  0  0  0  0
    5.1619   -3.4159    0.0000 H   0  0  0  0  0  0  0  0  0  0  0  0
    5.2179   -2.5409    0.0000 H   0  0  0  0  0  0  0  0  0  0  0  0
    8.5820   -1.5998    0.0000 H   0  0  0  0  0  0  0  0  0  0  0  0
    9.4574   -1.6491    0.0000 H   0  0  0  0  0  0  0  0  0  0  0  0
    9.5067   -0.7736    0.0000 H   0  0  0  0  0  0  0  0  0  0  0  0
  1 12  1  0  0  0  0
  1 33  1  0  0  0  0
  2 19  1  0  0  0  0
  2 23  1  0  0  0  0
  3 19  2  0  0  0  0
  4  7  1  0  0  0  0
  4  9  1  0  0  0  0
  4 24  1  0  0  0  0
  5  6  2  0  0  0  0
  5  7  1  0  0  0  0
  5  8  1  0  0  0  0
  6 10  1  0  0  0  0
  6 11  1  0  0  0  0
  7 12  2  0  0  0  0
  8  9  1  0  0  0  0
  8 14  2  0  0  0  0
  9 15  2  0  0  0  0
 10 16  1  0  0  0  0
 10 25  1  0  0  0  0
 10 26  1  0  0  0  0
 11 13  2  0  0  0  0
 11 19  1  0  0  0  0
 12 13  1  0  0  0  0
 13 27  1  0  0  0  0
 14 17  1  0  0  0  0
 14 28  1  0  0  0  0
 15 18  1  0  0  0  0
 15 29  1  0  0  0  0
 16 20  2  0  0  0  0
 16 30  1  0  0  0  0
 17 18  2  0  0  0  0
 17 31  1  0  0  0  0
 18 32  1  0  0  0  0
 20 21  1  0  0  0  0
 20 22  1  0  0  0  0
 21 34  1  0  0  0  0
 21 35  1  0  0  0  0
 21 36  1  0  0  0  0
 22 37  1  0  0  0  0
 22 38  1  0  0  0  0
 22 39  1  0  0  0  0
 23 40  1  0  0  0  0
 23 41  1  0  0  0  0
 23 42  1  0  0  0  0
M  END
> <PUBCHEM_COMPOUND_CID>
132514

> <PUBCHEM_COMPOUND_CANONICALIZED>
1

> <PUBCHEM_CACTVS_COMPLEXITY>
471

> <PUBCHEM_CACTVS_HBOND_ACCEPTOR>
3

> <PUBCHEM_CACTVS_HBOND_DONOR>
2

> <PUBCHEM_CACTVS_ROTATABLE_BOND>
4

> <PUBCHEM_CACTVS_SUBSKEYS>
AAADceB6MAAAAAAAAAAAAAAAAAAAAWAAAAAwYAAAAAAAAFgB/AAAHgAQCAAADAyBngIyzvLJlgCoAyTyTASCgCAlYiAImSE3bNgKJvLStZuEcQhk0BHY+Yfa2fOeqAADQAASEABQAAaAACQgAAAAAAAAAA==

> <PUBCHEM_IUPAC_OPENEYE_NAME>
methyl 1-hydroxy-4-(3-methylbut-2-enyl)-9H-carbazole-3-carboxylate

> <PUBCHEM_IUPAC_CAS_NAME>
1-hydroxy-4-(3-methylbut-2-enyl)-9H-carbazole-3-carboxylic acid methyl ester

> <PUBCHEM_IUPAC_NAME_MARKUP>
methyl 1-hydroxy-4-(3-methylbut-2-enyl)-9<I>H</I>-carbazole-3-carboxylate

> <PUBCHEM_IUPAC_NAME>
methyl 1-hydroxy-4-(3-methylbut-2-enyl)-9H-carbazole-3-carboxylate

> <PUBCHEM_IUPAC_SYSTEMATIC_NAME>
methyl 4-(3-methylbut-2-enyl)-1-oxidanyl-9H-carbazole-3-carboxylate

> <PUBCHEM_IUPAC_TRADITIONAL_NAME>
1-hydroxy-4-(3-methylbut-2-enyl)-9H-carbazole-3-carboxylic acid methyl ester

> <PUBCHEM_IUPAC_INCHI>
InChI=1S/C19H19NO3/c1-11(2)8-9-12-14(19(22)23-3)10-16(21)18-17(12)13-6-4-5-7-15(13)20-18/h4-8,10,20-21H,9H2,1-3H3

> <PUBCHEM_IUPAC_INCHIKEY>
PAQIMQDRJHTGBI-UHFFFAOYSA-N

> <PUBCHEM_XLOGP3_AA>
4.8

> <PUBCHEM_EXACT_MASS>
309.13649347

> <PUBCHEM_MOLECULAR_FORMULA>
C19H19NO3

> <PUBCHEM_MOLECULAR_WEIGHT>
309.4

> <PUBCHEM_SMILES>
CC(=CCC1=C2C3=CC=CC=C3NC2=C(C=C1C(=O)OC)O)C

> <PUBCHEM_CONNECTIVITY_SMILES>
CC(=CCC1=C2C3=CC=CC=C3NC2=C(C=C1C(=O)OC)O)C

> <PUBCHEM_CACTVS_TPSA>
62.3

> <PUBCHEM_MONOISOTOPIC_WEIGHT>
309.13649347

> <PUBCHEM_TOTAL_CHARGE>
0

> <PUBCHEM_HEAVY_ATOM_COUNT>
23

> <PUBCHEM_ATOM_DEF_STEREO_COUNT>
0

> <PUBCHEM_ATOM_UDEF_STEREO_COUNT>
0

> <PUBCHEM_BOND_DEF_STEREO_COUNT>
0

> <PUBCHEM_BOND_UDEF_STEREO_COUNT>
0

> <PUBCHEM_ISOTOPIC_ATOM_COUNT>
0

> <PUBCHEM_COMPONENT_COUNT>
1

> <PUBCHEM_CACTVS_TAUTO_COUNT>
-1

> <PUBCHEM_COORDINATE_TYPE>
1
5
255

> <PUBCHEM_BONDANNOTATIONS>
11  13  8
12  13  8
14  17  8
15  18  8
17  18  8
4  7  8
4  9  8
5  6  8
5  7  8
5  8  8
6  11  8
7  12  8
8  14  8
8  9  8
9  15  8

$$$$
