101371854
  -OEChem-01202622392D

 39 39  0     1  0  0  0  0  0999 V2000
    5.1350    0.9050    0.0000 O   0  0  0  0  0  0  0  0  0  0  0  0
    6.0010    3.4050    0.0000 O   0  0  0  0  0  0  0  0  0  0  0  0
    6.8671    0.9050    0.0000 O   0  0  0  0  0  0  0  0  0  0  0  0
    3.4030    1.9050    0.0000 O   0  0  0  0  0  0  0  0  0  0  0  0
    8.5991    1.9050    0.0000 O   0  0  0  0  0  0  0  0  0  0  0  0
    3.4030    3.9050    0.0000 O   0  0  0  0  0  0  0  0  0  0  0  0
    3.4030    0.9050    0.0000 O   0  0  0  0  0  0  0  0  0  0  0  0
    6.0010   -2.5950    0.0000 O   0  0  0  0  0  0  0  0  0  0  0  0
    2.5369   -2.5950    0.0000 O   0  0  0  0  0  0  0  0  0  0  0  0
    4.2690   -3.5950    0.0000 O   0  0  0  0  0  0  0  0  0  0  0  0
    6.0010    2.4050    0.0000 C   0  0  1  0  0  0  0  0  0  0  0  0
    5.1350    1.9050    0.0000 C   0  0  1  0  0  0  0  0  0  0  0  0
    6.8671    1.9050    0.0000 C   0  0  1  0  0  0  0  0  0  0  0  0
    4.2690    2.4050    0.0000 C   0  0  2  0  0  0  0  0  0  0  0  0
    7.7331    2.4050    0.0000 C   0  0  0  0  0  0  0  0  0  0  0  0
    4.2690    3.4050    0.0000 C   0  0  0  0  0  0  0  0  0  0  0  0
    4.2690    0.4050    0.0000 C   0  0  0  0  0  0  0  0  0  0  0  0
    4.2690   -0.5950    0.0000 C   0  0  0  0  0  0  0  0  0  0  0  0
    3.4030   -1.0950    0.0000 C   0  0  0  0  0  0  0  0  0  0  0  0
    5.1350   -1.0950    0.0000 C   0  0  0  0  0  0  0  0  0  0  0  0
    5.1350   -2.0950    0.0000 C   0  0  0  0  0  0  0  0  0  0  0  0
    3.4030   -2.0950    0.0000 C   0  0  0  0  0  0  0  0  0  0  0  0
    4.2690   -2.5950    0.0000 C   0  0  0  0  0  0  0  0  0  0  0  0
    6.5380    2.7150    0.0000 H   0  0  0  0  0  0  0  0  0  0  0  0
    5.6720    1.5950    0.0000 H   0  0  0  0  0  0  0  0  0  0  0  0
    6.3301    1.5950    0.0000 H   0  0  0  0  0  0  0  0  0  0  0  0
    4.2690    1.7850    0.0000 H   0  0  0  0  0  0  0  0  0  0  0  0
    8.1316    2.8800    0.0000 H   0  0  0  0  0  0  0  0  0  0  0  0
    7.3346    2.8800    0.0000 H   0  0  0  0  0  0  0  0  0  0  0  0
    6.5380    3.7150    0.0000 H   0  0  0  0  0  0  0  0  0  0  0  0
    4.8059    3.7150    0.0000 H   0  0  0  0  0  0  0  0  0  0  0  0
    7.4040    0.5950    0.0000 H   0  0  0  0  0  0  0  0  0  0  0  0
    2.8660    2.2150    0.0000 H   0  0  0  0  0  0  0  0  0  0  0  0
    9.1360    2.2150    0.0000 H   0  0  0  0  0  0  0  0  0  0  0  0
    2.8660   -0.7850    0.0000 H   0  0  0  0  0  0  0  0  0  0  0  0
    5.6720   -0.7850    0.0000 H   0  0  0  0  0  0  0  0  0  0  0  0
    6.5380   -2.2850    0.0000 H   0  0  0  0  0  0  0  0  0  0  0  0
    2.0000   -2.2850    0.0000 H   0  0  0  0  0  0  0  0  0  0  0  0
    3.7320   -3.9050    0.0000 H   0  0  0  0  0  0  0  0  0  0  0  0
 12  1  1  6  0  0  0
  1 17  1  0  0  0  0
 11  2  1  6  0  0  0
  2 30  1  0  0  0  0
 13  3  1  1  0  0  0
  3 32  1  0  0  0  0
 14  4  1  1  0  0  0
  4 33  1  0  0  0  0
  5 15  1  0  0  0  0
  5 34  1  0  0  0  0
  6 16  2  0  0  0  0
  7 17  2  0  0  0  0
  8 21  1  0  0  0  0
  8 37  1  0  0  0  0
  9 22  1  0  0  0  0
  9 38  1  0  0  0  0
 10 23  1  0  0  0  0
 10 39  1  0  0  0  0
 11 12  1  0  0  0  0
 11 13  1  0  0  0  0
 11 24  1  0  0  0  0
 12 14  1  0  0  0  0
 12 25  1  0  0  0  0
 13 15  1  0  0  0  0
 13 26  1  0  0  0  0
 14 16  1  0  0  0  0
 14 27  1  0  0  0  0
 15 28  1  0  0  0  0
 15 29  1  0  0  0  0
 16 31  1  0  0  0  0
 17 18  1  0  0  0  0
 18 19  2  0  0  0  0
 18 20  1  0  0  0  0
 19 22  1  0  0  0  0
 19 35  1  0  0  0  0
 20 21  2  0  0  0  0
 20 36  1  0  0  0  0
 21 23  1  0  0  0  0
 22 23  2  0  0  0  0
M  END
> <PUBCHEM_COMPOUND_CID>
101371854

> <PUBCHEM_COMPOUND_CANONICALIZED>
1

> <PUBCHEM_CACTVS_COMPLEXITY>
390

> <PUBCHEM_CACTVS_HBOND_ACCEPTOR>
10

> <PUBCHEM_CACTVS_HBOND_DONOR>
7

> <PUBCHEM_CACTVS_ROTATABLE_BOND>
8

> <PUBCHEM_CACTVS_SUBSKEYS>
AAADceBwPAAAAAAAAAAAAAAAAAAAAAAAAAAwAAAAAAAAAAABAAAAGgAACAAADBSgmAIwDoAABgCIAijSiAICAAAkIAAAiAFGiMgJNzaCNRqCcQEl4BULuYfK7DzOIAABCAAAQABAAAIQAACAAAAAAAAAAA==

> <PUBCHEM_IUPAC_OPENEYE_NAME>
[(1S,2R,3R)-2,3,4-trihydroxy-1-[(1R)-1-hydroxy-2-oxo-ethyl]butyl] 3,4,5-trihydroxybenzoate

> <PUBCHEM_IUPAC_CAS_NAME>
3,4,5-trihydroxybenzoic acid [(2R,3S,4R,5R)-2,4,5,6-tetrahydroxy-1-oxohexan-3-yl] ester

> <PUBCHEM_IUPAC_NAME_MARKUP>
[(2<I>R</I>,3<I>S</I>,4<I>R</I>,5<I>R</I>)-2,4,5,6-tetrahydroxy-1-oxohexan-3-yl] 3,4,5-trihydroxybenzoate

> <PUBCHEM_IUPAC_NAME>
[(2R,3S,4R,5R)-2,4,5,6-tetrahydroxy-1-oxohexan-3-yl] 3,4,5-trihydroxybenzoate

> <PUBCHEM_IUPAC_SYSTEMATIC_NAME>
[(2R,3S,4R,5R)-2,4,5,6-tetrakis(oxidanyl)-1-oxidanylidene-hexan-3-yl] 3,4,5-tris(oxidanyl)benzoate

> <PUBCHEM_IUPAC_TRADITIONAL_NAME>
3,4,5-trihydroxybenzoic acid [(1S,2R,3R)-2,3,4-trihydroxy-1-[(1R)-1-hydroxy-2-keto-ethyl]butyl] ester

> <PUBCHEM_IUPAC_INCHI>
InChI=1S/C13H16O10/c14-3-8(18)11(21)12(9(19)4-15)23-13(22)5-1-6(16)10(20)7(17)2-5/h1-2,4,8-9,11-12,14,16-21H,3H2/t8-,9+,11-,12-/m1/s1

> <PUBCHEM_IUPAC_INCHIKEY>
DUPUAYOTOWVLFB-RBLKWDMZSA-N

> <PUBCHEM_XLOGP3_AA>
-2.3

> <PUBCHEM_EXACT_MASS>
332.07434670

> <PUBCHEM_MOLECULAR_FORMULA>
C13H16O10

> <PUBCHEM_MOLECULAR_WEIGHT>
332.26

> <PUBCHEM_SMILES>
C1=C(C=C(C(=C1O)O)O)C(=O)O[C@H]([C@H](C=O)O)[C@@H]([C@@H](CO)O)O

> <PUBCHEM_CONNECTIVITY_SMILES>
C1=C(C=C(C(=C1O)O)O)C(=O)OC(C(C=O)O)C(C(CO)O)O

> <PUBCHEM_CACTVS_TPSA>
185

> <PUBCHEM_MONOISOTOPIC_WEIGHT>
332.07434670

> <PUBCHEM_TOTAL_CHARGE>
0

> <PUBCHEM_HEAVY_ATOM_COUNT>
23

> <PUBCHEM_ATOM_DEF_STEREO_COUNT>
4

> <PUBCHEM_ATOM_UDEF_STEREO_COUNT>
0

> <PUBCHEM_BOND_DEF_STEREO_COUNT>
0

> <PUBCHEM_BOND_UDEF_STEREO_COUNT>
0

> <PUBCHEM_ISOTOPIC_ATOM_COUNT>
0

> <PUBCHEM_COMPONENT_COUNT>
1

> <PUBCHEM_CACTVS_TAUTO_COUNT>
-1

> <PUBCHEM_COORDINATE_TYPE>
1
5
255

> <PUBCHEM_BONDANNOTATIONS>
12  1  6
18  19  8
18  20  8
19  22  8
11  2  6
20  21  8
21  23  8
22  23  8
13  3  5
14  4  5

$$$$
