160237
  -OEChem-01202622212D

 38 40  0     0  0  0  0  0  0999 V2000
    6.3580   -0.2699    0.0000 O   0  0  0  0  0  0  0  0  0  0  0  0
    2.8660    1.7648    0.0000 O   0  0  0  0  0  0  0  0  0  0  0  0
    2.8660   -0.2352    0.0000 O   0  0  0  0  0  0  0  0  0  0  0  0
    4.5981    2.7648    0.0000 O   0  0  0  0  0  0  0  0  0  0  0  0
    6.3465    2.7994    0.0000 O   0  0  0  0  0  0  0  0  0  0  0  0
    8.9846   -2.7627    0.0000 O   0  0  0  0  0  0  0  0  0  0  0  0
   10.7205   -1.7694    0.0000 O   0  0  0  0  0  0  0  0  0  0  0  0
    5.4641    1.2648    0.0000 C   0  0  0  0  0  0  0  0  0  0  0  0
    5.4641    0.2648    0.0000 C   0  0  0  0  0  0  0  0  0  0  0  0
    7.2641    0.2440    0.0000 C   0  0  0  0  0  0  0  0  0  0  0  0
    4.5981    1.7648    0.0000 C   0  0  0  0  0  0  0  0  0  0  0  0
    6.3580    1.7994    0.0000 C   0  0  0  0  0  0  0  0  0  0  0  0
    4.5981   -0.2352    0.0000 C   0  0  0  0  0  0  0  0  0  0  0  0
    3.7321    1.2648    0.0000 C   0  0  0  0  0  0  0  0  0  0  0  0
    3.7321    0.2648    0.0000 C   0  0  0  0  0  0  0  0  0  0  0  0
    8.1282   -0.2594    0.0000 C   0  0  0  0  0  0  0  0  0  0  0  0
    7.2641    1.2856    0.0000 C   0  0  0  0  0  0  0  0  0  0  0  0
    8.1244   -1.2594    0.0000 C   0  0  0  0  0  0  0  0  0  0  0  0
    8.9962    0.2373    0.0000 C   0  0  0  0  0  0  0  0  0  0  0  0
    8.9884   -1.7627    0.0000 C   0  0  0  0  0  0  0  0  0  0  0  0
    9.8602   -0.2661    0.0000 C   0  0  0  0  0  0  0  0  0  0  0  0
    9.8564   -1.2661    0.0000 C   0  0  0  0  0  0  0  0  0  0  0  0
    2.0000    1.2648    0.0000 C   0  0  0  0  0  0  0  0  0  0  0  0
    2.8660   -1.2352    0.0000 C   0  0  0  0  0  0  0  0  0  0  0  0
    4.5981   -0.8552    0.0000 H   0  0  0  0  0  0  0  0  0  0  0  0
    7.7999    1.5977    0.0000 H   0  0  0  0  0  0  0  0  0  0  0  0
    7.5862   -1.5673    0.0000 H   0  0  0  0  0  0  0  0  0  0  0  0
    8.9985    0.8573    0.0000 H   0  0  0  0  0  0  0  0  0  0  0  0
   10.3984    0.0419    0.0000 H   0  0  0  0  0  0  0  0  0  0  0  0
    4.0611    3.0748    0.0000 H   0  0  0  0  0  0  0  0  0  0  0  0
    1.6900    1.8017    0.0000 H   0  0  0  0  0  0  0  0  0  0  0  0
    1.4631    0.9548    0.0000 H   0  0  0  0  0  0  0  0  0  0  0  0
    2.3100    0.7278    0.0000 H   0  0  0  0  0  0  0  0  0  0  0  0
    2.2460   -1.2352    0.0000 H   0  0  0  0  0  0  0  0  0  0  0  0
    2.8660   -1.8552    0.0000 H   0  0  0  0  0  0  0  0  0  0  0  0
    3.4860   -1.2352    0.0000 H   0  0  0  0  0  0  0  0  0  0  0  0
    9.5203   -3.0748    0.0000 H   0  0  0  0  0  0  0  0  0  0  0  0
   11.2586   -1.4615    0.0000 H   0  0  0  0  0  0  0  0  0  0  0  0
  1  9  1  0  0  0  0
  1 10  1  0  0  0  0
  2 14  1  0  0  0  0
  2 23  1  0  0  0  0
  3 15  1  0  0  0  0
  3 24  1  0  0  0  0
  4 11  1  0  0  0  0
  4 30  1  0  0  0  0
  5 12  2  0  0  0  0
  6 20  1  0  0  0  0
  6 37  1  0  0  0  0
  7 22  1  0  0  0  0
  7 38  1  0  0  0  0
  8  9  1  0  0  0  0
  8 11  2  0  0  0  0
  8 12  1  0  0  0  0
  9 13  2  0  0  0  0
 10 16  1  0  0  0  0
 10 17  2  0  0  0  0
 11 14  1  0  0  0  0
 12 17  1  0  0  0  0
 13 15  1  0  0  0  0
 13 25  1  0  0  0  0
 14 15  2  0  0  0  0
 16 18  2  0  0  0  0
 16 19  1  0  0  0  0
 17 26  1  0  0  0  0
 18 20  1  0  0  0  0
 18 27  1  0  0  0  0
 19 21  2  0  0  0  0
 19 28  1  0  0  0  0
 20 22  2  0  0  0  0
 21 22  1  0  0  0  0
 21 29  1  0  0  0  0
 23 31  1  0  0  0  0
 23 32  1  0  0  0  0
 23 33  1  0  0  0  0
 24 34  1  0  0  0  0
 24 35  1  0  0  0  0
 24 36  1  0  0  0  0
M  END
> <PUBCHEM_COMPOUND_CID>
160237

> <PUBCHEM_COMPOUND_CANONICALIZED>
1

> <PUBCHEM_CACTVS_COMPLEXITY>
505

> <PUBCHEM_CACTVS_HBOND_ACCEPTOR>
7

> <PUBCHEM_CACTVS_HBOND_DONOR>
3

> <PUBCHEM_CACTVS_ROTATABLE_BOND>
3

> <PUBCHEM_CACTVS_SUBSKEYS>
AAADccB4OAAAAAAAAAAAAAAAAAAAAAAAAAAwYIAAAAAAAACBQAAAGgAACAAADASAmAIyBoAABgCIAqBSAAACCAAkIAAIiAEGiMgNJzaGNRqCeWOl4BULuQfK7LzOIQABCAAIQABCAAIQABCAAAAAAAAAAA==

> <PUBCHEM_IUPAC_OPENEYE_NAME>
2-(3,4-dihydroxyphenyl)-5-hydroxy-6,7-dimethoxy-chromen-4-one

> <PUBCHEM_IUPAC_CAS_NAME>
2-(3,4-dihydroxyphenyl)-5-hydroxy-6,7-dimethoxy-1-benzopyran-4-one

> <PUBCHEM_IUPAC_NAME_MARKUP>
2-(3,4-dihydroxyphenyl)-5-hydroxy-6,7-dimethoxychromen-4-one

> <PUBCHEM_IUPAC_NAME>
2-(3,4-dihydroxyphenyl)-5-hydroxy-6,7-dimethoxychromen-4-one

> <PUBCHEM_IUPAC_SYSTEMATIC_NAME>
2-[3,4-bis(oxidanyl)phenyl]-6,7-dimethoxy-5-oxidanyl-chromen-4-one

> <PUBCHEM_IUPAC_TRADITIONAL_NAME>
2-(3,4-dihydroxyphenyl)-5-hydroxy-6,7-dimethoxy-chromone

> <PUBCHEM_IUPAC_INCHI>
InChI=1S/C17H14O7/c1-22-14-7-13-15(16(21)17(14)23-2)11(20)6-12(24-13)8-3-4-9(18)10(19)5-8/h3-7,18-19,21H,1-2H3

> <PUBCHEM_IUPAC_INCHIKEY>
IMEYGBIXGJLUIS-UHFFFAOYSA-N

> <PUBCHEM_XLOGP3_AA>
2.6

> <PUBCHEM_EXACT_MASS>
330.07395278

> <PUBCHEM_MOLECULAR_FORMULA>
C17H14O7

> <PUBCHEM_MOLECULAR_WEIGHT>
330.29

> <PUBCHEM_SMILES>
COC1=C(C(=C2C(=C1)OC(=CC2=O)C3=CC(=C(C=C3)O)O)O)OC

> <PUBCHEM_CONNECTIVITY_SMILES>
COC1=C(C(=C2C(=C1)OC(=CC2=O)C3=CC(=C(C=C3)O)O)O)OC

> <PUBCHEM_CACTVS_TPSA>
105

> <PUBCHEM_MONOISOTOPIC_WEIGHT>
330.07395278

> <PUBCHEM_TOTAL_CHARGE>
0

> <PUBCHEM_HEAVY_ATOM_COUNT>
24

> <PUBCHEM_ATOM_DEF_STEREO_COUNT>
0

> <PUBCHEM_ATOM_UDEF_STEREO_COUNT>
0

> <PUBCHEM_BOND_DEF_STEREO_COUNT>
0

> <PUBCHEM_BOND_UDEF_STEREO_COUNT>
0

> <PUBCHEM_ISOTOPIC_ATOM_COUNT>
0

> <PUBCHEM_COMPONENT_COUNT>
1

> <PUBCHEM_CACTVS_TAUTO_COUNT>
-1

> <PUBCHEM_COORDINATE_TYPE>
1
5
255

> <PUBCHEM_BONDANNOTATIONS>
1  10  8
1  9  8
10  17  8
11  14  8
12  17  8
13  15  8
14  15  8
16  18  8
16  19  8
18  20  8
19  21  8
20  22  8
21  22  8
8  11  8
8  12  8
8  9  8
9  13  8

$$$$
