44584488
  -OEChem-01202613592D

103108  0     1  0  0  0  0  0999 V2000
   12.2635    1.0000    0.0000 O   0  0  0  0  0  0  0  0  0  0  0  0
   10.5315   -1.0000    0.0000 O   0  0  0  0  0  0  0  0  0  0  0  0
   12.2635   -2.0000    0.0000 O   0  0  0  0  0  0  0  0  0  0  0  0
   13.9956   -1.0000    0.0000 O   0  0  0  0  0  0  0  0  0  0  0  0
   13.9956    1.0000    0.0000 O   0  0  0  0  0  0  0  0  0  0  0  0
   10.5315    2.0000    0.0000 O   0  0  0  0  0  0  0  0  0  0  0  0
    9.6654    0.5000    0.0000 O   0  0  0  0  0  0  0  0  0  0  0  0
   10.5315   -2.0000    0.0000 O   0  0  0  0  0  0  0  0  0  0  0  0
    6.2013   -0.5000    0.0000 O   0  0  0  0  0  0  0  0  0  0  0  0
   13.1295    2.5000    0.0000 O   0  0  0  0  0  0  0  0  0  0  0  0
    3.8897    0.7871    0.0000 O   0  0  0  0  0  0  0  0  0  0  0  0
    8.7994    2.0000    0.0000 O   0  0  0  0  0  0  0  0  0  0  0  0
    7.0674   -2.0000    0.0000 O   0  0  0  0  0  0  0  0  0  0  0  0
    5.9318   -2.2278    0.0000 O   0  0  0  0  0  0  0  0  0  0  0  0
   13.1295   -5.5000    0.0000 O   0  0  0  0  0  0  0  0  0  0  0  0
    9.6654   -5.5000    0.0000 O   0  0  0  0  0  0  0  0  0  0  0  0
   11.3975   -6.5000    0.0000 O   0  0  0  0  0  0  0  0  0  0  0  0
    5.1753    2.3191    0.0000 O   0  0  0  0  0  0  0  0  0  0  0  0
   17.4597    2.0000    0.0000 O   0  0  0  0  0  0  0  0  0  0  0  0
   15.7276    5.0000    0.0000 O   0  0  0  0  0  0  0  0  0  0  0  0
    2.2621    0.1946    0.0000 O   0  0  0  0  0  0  0  0  0  0  0  0
    4.6273   -3.8070    0.0000 O   0  0  0  0  0  0  0  0  0  0  0  0
    6.5021    1.2057    0.0000 O   0  0  0  0  0  0  0  0  0  0  0  0
    2.6102   -3.4514    0.0000 O   0  0  0  0  0  0  0  0  0  0  0  0
   17.4597    4.0000    0.0000 O   0  0  0  0  0  0  0  0  0  0  0  0
    7.9334    5.5000    0.0000 O   0  0  0  0  0  0  0  0  0  0  0  0
   11.3975    5.5000    0.0000 O   0  0  0  0  0  0  0  0  0  0  0  0
    9.6654    6.5000    0.0000 O   0  0  0  0  0  0  0  0  0  0  0  0
   11.3975   -0.5000    0.0000 C   0  0  1  0  0  0  0  0  0  0  0  0
   12.2635   -1.0000    0.0000 C   0  0  1  0  0  0  0  0  0  0  0  0
   11.3975    0.5000    0.0000 C   0  0  1  0  0  0  0  0  0  0  0  0
   13.1295   -0.5000    0.0000 C   0  0  2  0  0  0  0  0  0  0  0  0
   13.1295    0.5000    0.0000 C   0  0  1  0  0  0  0  0  0  0  0  0
   10.5315    1.0000    0.0000 C   0  0  0  0  0  0  0  0  0  0  0  0
    9.6654   -0.5000    0.0000 C   0  0  0  0  0  0  0  0  0  0  0  0
   11.3975   -2.5000    0.0000 C   0  0  0  0  0  0  0  0  0  0  0  0
    8.7994   -1.0000    0.0000 C   0  0  0  0  0  0  0  0  0  0  0  0
   13.9956    2.0000    0.0000 C   0  0  0  0  0  0  0  0  0  0  0  0
    7.9334   -0.5000    0.0000 C   0  0  0  0  0  0  0  0  0  0  0  0
   11.3975   -3.5000    0.0000 C   0  0  0  0  0  0  0  0  0  0  0  0
    9.6654    2.5000    0.0000 C   0  0  0  0  0  0  0  0  0  0  0  0
   14.8616    2.5000    0.0000 C   0  0  0  0  0  0  0  0  0  0  0  0
    5.2165   -0.3263    0.0000 C   0  0  3  0  0  0  0  0  0  0  0  0
    7.0674   -1.0000    0.0000 C   0  0  0  0  0  0  0  0  0  0  0  0
    4.8746    0.6134    0.0000 C   0  0  3  0  0  0  0  0  0  0  0  0
    9.6654    3.5000    0.0000 C   0  0  0  0  0  0  0  0  0  0  0  0
    4.5738   -1.0924    0.0000 C   0  0  0  0  0  0  0  0  0  0  0  0
   10.5315   -4.0000    0.0000 C   0  0  0  0  0  0  0  0  0  0  0  0
   12.2635   -4.0000    0.0000 C   0  0  0  0  0  0  0  0  0  0  0  0
   14.8616    3.5000    0.0000 C   0  0  0  0  0  0  0  0  0  0  0  0
   15.7276    2.0000    0.0000 C   0  0  0  0  0  0  0  0  0  0  0  0
    3.5889   -0.9188    0.0000 C   0  0  0  0  0  0  0  0  0  0  0  0
   12.2635   -5.0000    0.0000 C   0  0  0  0  0  0  0  0  0  0  0  0
   10.5315   -5.0000    0.0000 C   0  0  0  0  0  0  0  0  0  0  0  0
    4.9450   -2.0656    0.0000 C   0  0  0  0  0  0  0  0  0  0  0  0
    3.2469    0.0210    0.0000 C   0  0  0  0  0  0  0  0  0  0  0  0
   10.5315    4.0000    0.0000 C   0  0  0  0  0  0  0  0  0  0  0  0
    8.7994    4.0000    0.0000 C   0  0  0  0  0  0  0  0  0  0  0  0
   11.3975   -5.5000    0.0000 C   0  0  0  0  0  0  0  0  0  0  0  0
    2.9072   -1.7063    0.0000 C   0  0  0  0  0  0  0  0  0  0  0  0
   16.5936    2.5000    0.0000 C   0  0  0  0  0  0  0  0  0  0  0  0
   15.7276    4.0000    0.0000 C   0  0  0  0  0  0  0  0  0  0  0  0
    5.5173    1.3794    0.0000 C   0  0  0  0  0  0  0  0  0  0  0  0
    4.2817   -2.8687    0.0000 C   0  0  0  0  0  0  0  0  0  0  0  0
   16.5936    3.5000    0.0000 C   0  0  0  0  0  0  0  0  0  0  0  0
    3.2559   -2.6879    0.0000 C   0  0  0  0  0  0  0  0  0  0  0  0
    8.7994    5.0000    0.0000 C   0  0  0  0  0  0  0  0  0  0  0  0
   10.5315    5.0000    0.0000 C   0  0  0  0  0  0  0  0  0  0  0  0
    9.6654    5.5000    0.0000 C   0  0  0  0  0  0  0  0  0  0  0  0
   10.8605   -0.1900    0.0000 H   0  0  0  0  0  0  0  0  0  0  0  0
   11.7266   -1.3100    0.0000 H   0  0  0  0  0  0  0  0  0  0  0  0
   11.3975    1.1200    0.0000 H   0  0  0  0  0  0  0  0  0  0  0  0
   13.1295   -1.1200    0.0000 H   0  0  0  0  0  0  0  0  0  0  0  0
   13.1295    1.1200    0.0000 H   0  0  0  0  0  0  0  0  0  0  0  0
    9.9209    1.1077    0.0000 H   0  0  0  0  0  0  0  0  0  0  0  0
   10.3194    0.4174    0.0000 H   0  0  0  0  0  0  0  0  0  0  0  0
   14.5325   -0.6900    0.0000 H   0  0  0  0  0  0  0  0  0  0  0  0
    8.4009   -1.4750    0.0000 H   0  0  0  0  0  0  0  0  0  0  0  0
    9.1979   -1.4750    0.0000 H   0  0  0  0  0  0  0  0  0  0  0  0
    8.3319   -0.0251    0.0000 H   0  0  0  0  0  0  0  0  0  0  0  0
    7.5348   -0.0251    0.0000 H   0  0  0  0  0  0  0  0  0  0  0  0
    5.6151    0.1486    0.0000 H   0  0  0  0  0  0  0  0  0  0  0  0
    4.6625    1.1960    0.0000 H   0  0  0  0  0  0  0  0  0  0  0  0
    9.9945   -3.6900    0.0000 H   0  0  0  0  0  0  0  0  0  0  0  0
   12.8004   -3.6900    0.0000 H   0  0  0  0  0  0  0  0  0  0  0  0
   14.3246    3.8100    0.0000 H   0  0  0  0  0  0  0  0  0  0  0  0
   15.7276    1.3800    0.0000 H   0  0  0  0  0  0  0  0  0  0  0  0
   11.0684    3.6900    0.0000 H   0  0  0  0  0  0  0  0  0  0  0  0
    8.2625    3.6900    0.0000 H   0  0  0  0  0  0  0  0  0  0  0  0
    2.2979   -1.5916    0.0000 H   0  0  0  0  0  0  0  0  0  0  0  0
    6.1506   -2.8080    0.0000 H   0  0  0  0  0  0  0  0  0  0  0  0
   13.6665   -5.1900    0.0000 H   0  0  0  0  0  0  0  0  0  0  0  0
    9.1285   -5.1900    0.0000 H   0  0  0  0  0  0  0  0  0  0  0  0
   10.8605   -6.8100    0.0000 H   0  0  0  0  0  0  0  0  0  0  0  0
    4.5647    2.4267    0.0000 H   0  0  0  0  0  0  0  0  0  0  0  0
   17.4597    1.3800    0.0000 H   0  0  0  0  0  0  0  0  0  0  0  0
   15.1907    5.3100    0.0000 H   0  0  0  0  0  0  0  0  0  0  0  0
    4.2306   -4.2835    0.0000 H   0  0  0  0  0  0  0  0  0  0  0  0
    2.0000   -3.3414    0.0000 H   0  0  0  0  0  0  0  0  0  0  0  0
   17.9966    3.6900    0.0000 H   0  0  0  0  0  0  0  0  0  0  0  0
    7.3964    5.1900    0.0000 H   0  0  0  0  0  0  0  0  0  0  0  0
   11.3975    6.1200    0.0000 H   0  0  0  0  0  0  0  0  0  0  0  0
    9.1285    6.8100    0.0000 H   0  0  0  0  0  0  0  0  0  0  0  0
  1 31  1  0  0  0  0
  1 33  1  0  0  0  0
 29  2  1  6  0  0  0
  2 35  1  0  0  0  0
 30  3  1  1  0  0  0
  3 36  1  0  0  0  0
 32  4  1  6  0  0  0
  4 77  1  0  0  0  0
 33  5  1  1  0  0  0
  5 38  1  0  0  0  0
  6 34  1  0  0  0  0
  6 41  1  0  0  0  0
  7 35  2  0  0  0  0
  8 36  2  0  0  0  0
  9 43  1  0  0  0  0
  9 44  1  0  0  0  0
 10 38  2  0  0  0  0
 11 45  1  0  0  0  0
 11 56  1  0  0  0  0
 12 41  2  0  0  0  0
 13 44  2  0  0  0  0
 14 55  1  0  0  0  0
 14 91  1  0  0  0  0
 15 53  1  0  0  0  0
 15 92  1  0  0  0  0
 16 54  1  0  0  0  0
 16 93  1  0  0  0  0
 17 59  1  0  0  0  0
 17 94  1  0  0  0  0
 18 63  1  0  0  0  0
 18 95  1  0  0  0  0
 19 61  1  0  0  0  0
 19 96  1  0  0  0  0
 20 62  1  0  0  0  0
 20 97  1  0  0  0  0
 21 56  2  0  0  0  0
 22 64  1  0  0  0  0
 22 98  1  0  0  0  0
 23 63  2  0  0  0  0
 24 66  1  0  0  0  0
 24 99  1  0  0  0  0
 25 65  1  0  0  0  0
 25100  1  0  0  0  0
 26 67  1  0  0  0  0
 26101  1  0  0  0  0
 27 68  1  0  0  0  0
 27102  1  0  0  0  0
 28 69  1  0  0  0  0
 28103  1  0  0  0  0
 29 30  1  0  0  0  0
 29 31  1  0  0  0  0
 29 70  1  0  0  0  0
 30 32  1  0  0  0  0
 30 71  1  0  0  0  0
 31 34  1  1  0  0  0
 31 72  1  0  0  0  0
 32 33  1  0  0  0  0
 32 73  1  0  0  0  0
 33 74  1  0  0  0  0
 34 75  1  0  0  0  0
 34 76  1  0  0  0  0
 35 37  1  0  0  0  0
 36 40  1  0  0  0  0
 37 39  1  0  0  0  0
 37 78  1  0  0  0  0
 37 79  1  0  0  0  0
 38 42  1  0  0  0  0
 39 44  1  0  0  0  0
 39 80  1  0  0  0  0
 39 81  1  0  0  0  0
 40 48  2  0  0  0  0
 40 49  1  0  0  0  0
 41 46  1  0  0  0  0
 42 50  2  0  0  0  0
 42 51  1  0  0  0  0
 43 45  1  0  0  0  0
 43 47  1  0  0  0  0
 43 82  1  0  0  0  0
 45 63  1  0  0  0  0
 45 83  1  0  0  0  0
 46 57  2  0  0  0  0
 46 58  1  0  0  0  0
 47 52  1  0  0  0  0
 47 55  2  0  0  0  0
 48 54  1  0  0  0  0
 48 84  1  0  0  0  0
 49 53  2  0  0  0  0
 49 85  1  0  0  0  0
 50 62  1  0  0  0  0
 50 86  1  0  0  0  0
 51 61  2  0  0  0  0
 51 87  1  0  0  0  0
 52 56  1  0  0  0  0
 52 60  2  0  0  0  0
 53 59  1  0  0  0  0
 54 59  2  0  0  0  0
 55 64  1  0  0  0  0
 57 68  1  0  0  0  0
 57 88  1  0  0  0  0
 58 67  2  0  0  0  0
 58 89  1  0  0  0  0
 60 66  1  0  0  0  0
 60 90  1  0  0  0  0
 61 65  1  0  0  0  0
 62 65  2  0  0  0  0
 64 66  2  0  0  0  0
 67 69  1  0  0  0  0
 68 69  2  0  0  0  0
M  END
> <PUBCHEM_COMPOUND_CID>
44584488

> <PUBCHEM_COMPOUND_CANONICALIZED>
1

> <PUBCHEM_CACTVS_COMPLEXITY>
1850

> <PUBCHEM_CACTVS_HBOND_ACCEPTOR>
28

> <PUBCHEM_CACTVS_HBOND_DONOR>
14

> <PUBCHEM_CACTVS_ROTATABLE_BOND>
18

> <PUBCHEM_CACTVS_SUBSKEYS>
AAADcfB8PgAAAAAAAAAAAAAAAAAAAAAAAAA0aMGCAAAAAACRVAAAGgAACAAADBSwmAMwDoAABgCIAiDSCAICAAAkIAAAiAFGiMgZNzaCNR6icQEl4BUPuYfL7LzOoAABCAAYQABAAAIQADCAAAAAAAAAAA==

> <PUBCHEM_IUPAC_OPENEYE_NAME>
5,6,7-trihydroxy-4-[4-[(2R,3R,4R,5R,6S)-5-hydroxy-4,6-bis[(3,4,5-trihydroxybenzoyl)oxy]-2-[(3,4,5-trihydroxybenzoyl)oxymethyl]tetrahydropyran-3-yl]oxy-4-oxo-butanoyl]oxy-1-oxo-isochromane-3-carboxylic acid

> <PUBCHEM_IUPAC_CAS_NAME>
5,6,7-trihydroxy-4-[4-[[(2R,3R,4R,5R,6S)-5-hydroxy-4,6-bis[oxo-(3,4,5-trihydroxyphenyl)methoxy]-2-[[oxo-(3,4,5-trihydroxyphenyl)methoxy]methyl]-3-oxanyl]oxy]-1,4-dioxobutoxy]-1-oxo-3,4-dihydro-1H-2-benzopyran-3-carboxylic acid

> <PUBCHEM_IUPAC_NAME_MARKUP>
5,6,7-trihydroxy-4-[4-[(2<I>R</I>,3<I>R</I>,4<I>R</I>,5<I>R</I>,6<I>S</I>)-5-hydroxy-4,6-bis[(3,4,5-trihydroxybenzoyl)oxy]-2-[(3,4,5-trihydroxybenzoyl)oxymethyl]oxan-3-yl]oxy-4-oxobutanoyl]oxy-1-oxo-3,4-dihydroisochromene-3-carboxylic acid

> <PUBCHEM_IUPAC_NAME>
5,6,7-trihydroxy-4-[4-[(2R,3R,4R,5R,6S)-5-hydroxy-4,6-bis[(3,4,5-trihydroxybenzoyl)oxy]-2-[(3,4,5-trihydroxybenzoyl)oxymethyl]oxan-3-yl]oxy-4-oxobutanoyl]oxy-1-oxo-3,4-dihydroisochromene-3-carboxylic acid

> <PUBCHEM_IUPAC_SYSTEMATIC_NAME>
5,6,7-tris(oxidanyl)-4-[4-[(2R,3R,4R,5R,6S)-5-oxidanyl-4,6-bis[[3,4,5-tris(oxidanyl)phenyl]carbonyloxy]-2-[[3,4,5-tris(oxidanyl)phenyl]carbonyloxymethyl]oxan-3-yl]oxy-4-oxidanylidene-butanoyl]oxy-1-oxidanylidene-3,4-dihydroisochromene-3-carboxylic acid

> <PUBCHEM_IUPAC_TRADITIONAL_NAME>
4-[4-[(2R,3R,4R,5R,6S)-4,6-digalloyloxy-2-(galloyloxymethyl)-5-hydroxy-tetrahydropyran-3-yl]oxy-4-keto-butanoyl]oxy-5,6,7-trihydroxy-1-keto-isochroman-3-carboxylic acid

> <PUBCHEM_IUPAC_INCHI>
InChI=1S/C41H34O28/c42-15-3-11(4-16(43)26(15)51)37(59)63-10-22-32(65-23(49)1-2-24(50)66-33-25-14(9-21(48)29(54)30(25)55)40(62)68-35(33)36(57)58)34(67-38(60)12-5-17(44)27(52)18(45)6-12)31(56)41(64-22)69-39(61)13-7-19(46)28(53)20(47)8-13/h3-9,22,31-35,41-48,51-56H,1-2,10H2,(H,57,58)/t22-,31-,32-,33?,34-,35?,41+/m1/s1

> <PUBCHEM_IUPAC_INCHIKEY>
OEVLWLXRXPYOLV-FHVMJIKHSA-N

> <PUBCHEM_XLOGP3_AA>
0.4

> <PUBCHEM_EXACT_MASS>
974.12366042

> <PUBCHEM_MOLECULAR_FORMULA>
C41H34O28

> <PUBCHEM_MOLECULAR_WEIGHT>
974.7

> <PUBCHEM_SMILES>
C1=C(C=C(C(=C1O)O)O)C(=O)OC[C@@H]2[C@H]([C@@H]([C@H]([C@@H](O2)OC(=O)C3=CC(=C(C(=C3)O)O)O)O)OC(=O)C4=CC(=C(C(=C4)O)O)O)OC(=O)CCC(=O)OC5C(OC(=O)C6=CC(=C(C(=C56)O)O)O)C(=O)O

> <PUBCHEM_CONNECTIVITY_SMILES>
C1=C(C=C(C(=C1O)O)O)C(=O)OCC2C(C(C(C(O2)OC(=O)C3=CC(=C(C(=C3)O)O)O)O)OC(=O)C4=CC(=C(C(=C4)O)O)O)OC(=O)CCC(=O)OC5C(OC(=O)C6=CC(=C(C(=C56)O)O)O)C(=O)O

> <PUBCHEM_CACTVS_TPSA>
467

> <PUBCHEM_MONOISOTOPIC_WEIGHT>
974.12366042

> <PUBCHEM_TOTAL_CHARGE>
0

> <PUBCHEM_HEAVY_ATOM_COUNT>
69

> <PUBCHEM_ATOM_DEF_STEREO_COUNT>
5

> <PUBCHEM_ATOM_UDEF_STEREO_COUNT>
2

> <PUBCHEM_BOND_DEF_STEREO_COUNT>
0

> <PUBCHEM_BOND_UDEF_STEREO_COUNT>
0

> <PUBCHEM_ISOTOPIC_ATOM_COUNT>
0

> <PUBCHEM_COMPONENT_COUNT>
1

> <PUBCHEM_CACTVS_TAUTO_COUNT>
-1

> <PUBCHEM_COORDINATE_TYPE>
1
5
255

> <PUBCHEM_BONDANNOTATIONS>
29  2  6
30  3  5
31  34  5
32  4  6
40  48  8
40  49  8
42  50  8
42  51  8
45  63  3
46  57  8
46  58  8
47  52  8
47  55  8
48  54  8
49  53  8
33  5  5
50  62  8
51  61  8
52  60  8
53  59  8
54  59  8
55  64  8
57  68  8
58  67  8
60  66  8
61  65  8
62  65  8
64  66  8
67  69  8
68  69  8
43  9  3

$$$$
