10298511
  -OEChem-01202622362D

 66 68  0     0  0  0  0  0  0999 V2000
    8.1301   -1.0000    0.0000 O   0  0  0  0  0  0  0  0  0  0  0  0
   11.6602    1.0242    0.0000 O   0  0  0  0  0  0  0  0  0  0  0  0
   11.6602   -1.0242    0.0000 O   0  0  0  0  0  0  0  0  0  0  0  0
    8.1301    2.0000    0.0000 O   0  0  0  0  0  0  0  0  0  0  0  0
    6.3817    2.0346    0.0000 O   0  0  0  0  0  0  0  0  0  0  0  0
    4.6000   -1.0242    0.0000 O   0  0  0  0  0  0  0  0  0  0  0  0
    8.9961    0.5000    0.0000 C   0  0  0  0  0  0  0  0  0  0  0  0
    8.9961   -0.5000    0.0000 C   0  0  0  0  0  0  0  0  0  0  0  0
    9.8901    1.0347    0.0000 C   0  0  0  0  0  0  0  0  0  0  0  0
    9.8901   -1.0347    0.0000 C   0  0  0  0  0  0  0  0  0  0  0  0
    7.2641    0.5000    0.0000 C   0  0  0  0  0  0  0  0  0  0  0  0
    8.1301    1.0000    0.0000 C   0  0  0  0  0  0  0  0  0  0  0  0
    7.2641   -0.5000    0.0000 C   0  0  0  0  0  0  0  0  0  0  0  0
   10.7961    0.5208    0.0000 C   0  0  0  0  0  0  0  0  0  0  0  0
   10.7961   -0.5208    0.0000 C   0  0  0  0  0  0  0  0  0  0  0  0
    9.8785    2.0346    0.0000 C   0  0  0  0  0  0  0  0  0  0  0  0
    9.8785   -2.0346    0.0000 C   0  0  0  0  0  0  0  0  0  0  0  0
    6.3701    1.0347    0.0000 C   0  0  0  0  0  0  0  0  0  0  0  0
    5.4641    0.5208    0.0000 C   0  0  0  0  0  0  0  0  0  0  0  0
    6.3701   -1.0347    0.0000 C   0  0  0  0  0  0  0  0  0  0  0  0
    5.4641   -0.5208    0.0000 C   0  0  0  0  0  0  0  0  0  0  0  0
    4.6000    1.0242    0.0000 C   0  0  0  0  0  0  0  0  0  0  0  0
   10.7387    2.5446    0.0000 C   0  0  0  0  0  0  0  0  0  0  0  0
   10.7387   -2.5446    0.0000 C   0  0  0  0  0  0  0  0  0  0  0  0
   10.7271    3.5445    0.0000 C   0  0  0  0  0  0  0  0  0  0  0  0
    3.7320    0.5275    0.0000 C   0  0  0  0  0  0  0  0  0  0  0  0
   10.7271   -3.5445    0.0000 C   0  0  0  0  0  0  0  0  0  0  0  0
    2.8680    1.0308    0.0000 C   0  0  0  0  0  0  0  0  0  0  0  0
   11.5873    4.0545    0.0000 C   0  0  0  0  0  0  0  0  0  0  0  0
    9.8554    4.0345    0.0000 C   0  0  0  0  0  0  0  0  0  0  0  0
   11.5873   -4.0545    0.0000 C   0  0  0  0  0  0  0  0  0  0  0  0
    9.8554   -4.0345    0.0000 C   0  0  0  0  0  0  0  0  0  0  0  0
    2.0000    0.5342    0.0000 C   0  0  0  0  0  0  0  0  0  0  0  0
    2.8718    2.0308    0.0000 C   0  0  0  0  0  0  0  0  0  0  0  0
    9.6597    2.6147    0.0000 H   0  0  0  0  0  0  0  0  0  0  0  0
    9.2692    1.9199    0.0000 H   0  0  0  0  0  0  0  0  0  0  0  0
    9.2692   -1.9199    0.0000 H   0  0  0  0  0  0  0  0  0  0  0  0
    9.6597   -2.6147    0.0000 H   0  0  0  0  0  0  0  0  0  0  0  0
    6.3773   -1.6546    0.0000 H   0  0  0  0  0  0  0  0  0  0  0  0
    5.0003    1.4976    0.0000 H   0  0  0  0  0  0  0  0  0  0  0  0
    4.2033    1.5006    0.0000 H   0  0  0  0  0  0  0  0  0  0  0  0
   11.2792    2.2408    0.0000 H   0  0  0  0  0  0  0  0  0  0  0  0
   11.2792   -2.2408    0.0000 H   0  0  0  0  0  0  0  0  0  0  0  0
    3.7297   -0.0925    0.0000 H   0  0  0  0  0  0  0  0  0  0  0  0
   12.1984    0.7162    0.0000 H   0  0  0  0  0  0  0  0  0  0  0  0
   12.1984   -0.7162    0.0000 H   0  0  0  0  0  0  0  0  0  0  0  0
    5.8484    2.3508    0.0000 H   0  0  0  0  0  0  0  0  0  0  0  0
    4.6024   -1.6442    0.0000 H   0  0  0  0  0  0  0  0  0  0  0  0
   11.9035    3.5212    0.0000 H   0  0  0  0  0  0  0  0  0  0  0  0
   12.1206    4.3707    0.0000 H   0  0  0  0  0  0  0  0  0  0  0  0
   11.2711    4.5878    0.0000 H   0  0  0  0  0  0  0  0  0  0  0  0
   10.1592    4.5749    0.0000 H   0  0  0  0  0  0  0  0  0  0  0  0
    9.3149    4.3382    0.0000 H   0  0  0  0  0  0  0  0  0  0  0  0
    9.5516    3.4940    0.0000 H   0  0  0  0  0  0  0  0  0  0  0  0
   11.2711   -4.5878    0.0000 H   0  0  0  0  0  0  0  0  0  0  0  0
   12.1206   -4.3707    0.0000 H   0  0  0  0  0  0  0  0  0  0  0  0
   11.9035   -3.5212    0.0000 H   0  0  0  0  0  0  0  0  0  0  0  0
    9.5516   -3.4940    0.0000 H   0  0  0  0  0  0  0  0  0  0  0  0
    9.3149   -4.3382    0.0000 H   0  0  0  0  0  0  0  0  0  0  0  0
   10.1592   -4.5749    0.0000 H   0  0  0  0  0  0  0  0  0  0  0  0
    1.6921    1.0723    0.0000 H   0  0  0  0  0  0  0  0  0  0  0  0
    1.4619    0.2262    0.0000 H   0  0  0  0  0  0  0  0  0  0  0  0
    2.3079   -0.0040    0.0000 H   0  0  0  0  0  0  0  0  0  0  0  0
    3.4918    2.0284    0.0000 H   0  0  0  0  0  0  0  0  0  0  0  0
    2.8742    2.6508    0.0000 H   0  0  0  0  0  0  0  0  0  0  0  0
    2.2518    2.0332    0.0000 H   0  0  0  0  0  0  0  0  0  0  0  0
  1  8  1  0  0  0  0
  1 13  1  0  0  0  0
  2 14  1  0  0  0  0
  2 45  1  0  0  0  0
  3 15  1  0  0  0  0
  3 46  1  0  0  0  0
  4 12  2  0  0  0  0
  5 18  1  0  0  0  0
  5 47  1  0  0  0  0
  6 21  1  0  0  0  0
  6 48  1  0  0  0  0
  7  8  1  0  0  0  0
  7  9  2  0  0  0  0
  7 12  1  0  0  0  0
  8 10  2  0  0  0  0
  9 14  1  0  0  0  0
  9 16  1  0  0  0  0
 10 15  1  0  0  0  0
 10 17  1  0  0  0  0
 11 12  1  0  0  0  0
 11 13  2  0  0  0  0
 11 18  1  0  0  0  0
 13 20  1  0  0  0  0
 14 15  2  0  0  0  0
 16 23  1  0  0  0  0
 16 35  1  0  0  0  0
 16 36  1  0  0  0  0
 17 24  1  0  0  0  0
 17 37  1  0  0  0  0
 17 38  1  0  0  0  0
 18 19  2  0  0  0  0
 19 21  1  0  0  0  0
 19 22  1  0  0  0  0
 20 21  2  0  0  0  0
 20 39  1  0  0  0  0
 22 26  1  0  0  0  0
 22 40  1  0  0  0  0
 22 41  1  0  0  0  0
 23 25  2  0  0  0  0
 23 42  1  0  0  0  0
 24 27  2  0  0  0  0
 24 43  1  0  0  0  0
 25 29  1  0  0  0  0
 25 30  1  0  0  0  0
 26 28  2  0  0  0  0
 26 44  1  0  0  0  0
 27 31  1  0  0  0  0
 27 32  1  0  0  0  0
 28 33  1  0  0  0  0
 28 34  1  0  0  0  0
 29 49  1  0  0  0  0
 29 50  1  0  0  0  0
 29 51  1  0  0  0  0
 30 52  1  0  0  0  0
 30 53  1  0  0  0  0
 30 54  1  0  0  0  0
 31 55  1  0  0  0  0
 31 56  1  0  0  0  0
 31 57  1  0  0  0  0
 32 58  1  0  0  0  0
 32 59  1  0  0  0  0
 32 60  1  0  0  0  0
 33 61  1  0  0  0  0
 33 62  1  0  0  0  0
 33 63  1  0  0  0  0
 34 64  1  0  0  0  0
 34 65  1  0  0  0  0
 34 66  1  0  0  0  0
M  END
> <PUBCHEM_COMPOUND_CID>
10298511

> <PUBCHEM_COMPOUND_CANONICALIZED>
1

> <PUBCHEM_CACTVS_COMPLEXITY>
817

> <PUBCHEM_CACTVS_HBOND_ACCEPTOR>
6

> <PUBCHEM_CACTVS_HBOND_DONOR>
4

> <PUBCHEM_CACTVS_ROTATABLE_BOND>
6

> <PUBCHEM_CACTVS_SUBSKEYS>
AAADcfB4OAAAAAAAAAAAAAAAAAAAAAAAAAA0YIAAAAAAAACRQAAAGgAACAAADASAmAAyBoAABgCIAqBSAAACCAAkIAAAiAEGiMgNJzaGNRqCeWGl4BUJuQfK7PzO4QADCAAYQADCAAYQADCAAAAAAAAAAA==

> <PUBCHEM_IUPAC_OPENEYE_NAME>
2,3,6,8-tetrahydroxy-1,4,7-tris(3-methylbut-2-enyl)xanthen-9-one

> <PUBCHEM_IUPAC_CAS_NAME>
2,3,6,8-tetrahydroxy-1,4,7-tris(3-methylbut-2-enyl)-9-xanthenone

> <PUBCHEM_IUPAC_NAME_MARKUP>
2,3,6,8-tetrahydroxy-1,4,7-tris(3-methylbut-2-enyl)xanthen-9-one

> <PUBCHEM_IUPAC_NAME>
2,3,6,8-tetrahydroxy-1,4,7-tris(3-methylbut-2-enyl)xanthen-9-one

> <PUBCHEM_IUPAC_SYSTEMATIC_NAME>
1,4,7-tris(3-methylbut-2-enyl)-2,3,6,8-tetrakis(oxidanyl)xanthen-9-one

> <PUBCHEM_IUPAC_TRADITIONAL_NAME>
2,3,6,8-tetrahydroxy-1,4,7-tris(3-methylbut-2-enyl)xanthone

> <PUBCHEM_IUPAC_INCHI>
InChI=1S/C28H32O6/c1-14(2)7-10-17-20(29)13-21-23(24(17)30)27(33)22-18(11-8-15(3)4)25(31)26(32)19(28(22)34-21)12-9-16(5)6/h7-9,13,29-32H,10-12H2,1-6H3

> <PUBCHEM_IUPAC_INCHIKEY>
WVJYEKGQSBGNRP-UHFFFAOYSA-N

> <PUBCHEM_XLOGP3_AA>
7.9

> <PUBCHEM_EXACT_MASS>
464.21988874

> <PUBCHEM_MOLECULAR_FORMULA>
C28H32O6

> <PUBCHEM_MOLECULAR_WEIGHT>
464.5

> <PUBCHEM_SMILES>
CC(=CCC1=C(C2=C(C=C1O)OC3=C(C(=C(C(=C3C2=O)CC=C(C)C)O)O)CC=C(C)C)O)C

> <PUBCHEM_CONNECTIVITY_SMILES>
CC(=CCC1=C(C2=C(C=C1O)OC3=C(C(=C(C(=C3C2=O)CC=C(C)C)O)O)CC=C(C)C)O)C

> <PUBCHEM_CACTVS_TPSA>
107

> <PUBCHEM_MONOISOTOPIC_WEIGHT>
464.21988874

> <PUBCHEM_TOTAL_CHARGE>
0

> <PUBCHEM_HEAVY_ATOM_COUNT>
34

> <PUBCHEM_ATOM_DEF_STEREO_COUNT>
0

> <PUBCHEM_ATOM_UDEF_STEREO_COUNT>
0

> <PUBCHEM_BOND_DEF_STEREO_COUNT>
0

> <PUBCHEM_BOND_UDEF_STEREO_COUNT>
0

> <PUBCHEM_ISOTOPIC_ATOM_COUNT>
0

> <PUBCHEM_COMPONENT_COUNT>
1

> <PUBCHEM_CACTVS_TAUTO_COUNT>
-1

> <PUBCHEM_COORDINATE_TYPE>
1
5
255

> <PUBCHEM_BONDANNOTATIONS>
1  13  8
1  8  8
10  15  8
11  12  8
11  13  8
11  18  8
13  20  8
14  15  8
18  19  8
19  21  8
20  21  8
7  12  8
7  8  8
7  9  8
8  10  8
9  14  8

$$$$
