23643935
  -OEChem-01202613592D

148148  0     1  0  0  0  0  0999 V2000
    4.2690   -7.8450    0.0000 O   0  0  0  0  0  0  0  0  0  0  0  0
    6.0010   -7.8450    0.0000 O   0  0  0  0  0  0  0  0  0  0  0  0
    2.5369   -9.8450    0.0000 O   0  0  0  0  0  0  0  0  0  0  0  0
    4.2690  -10.8450    0.0000 O   0  0  0  0  0  0  0  0  0  0  0  0
    6.0010   -9.8450    0.0000 O   0  0  0  0  0  0  0  0  0  0  0  0
    6.8671   -5.3450    0.0000 O   0  0  0  0  0  0  0  0  0  0  0  0
    8.5991   -6.3450    0.0000 O   0  0  0  0  0  0  0  0  0  0  0  0
    8.5991   -5.3450    0.0000 O   0  0  0  0  0  0  0  0  0  0  0  0
    9.4651   -7.8450    0.0000 O   0  0  0  0  0  0  0  0  0  0  0  0
    2.5369   -6.8450    0.0000 N   0  0  0  0  0  0  0  0  0  0  0  0
    3.4030   -9.3450    0.0000 C   0  0  1  0  0  0  0  0  0  0  0  0
    4.2690   -9.8450    0.0000 C   0  0  1  0  0  0  0  0  0  0  0  0
    3.4030   -8.3450    0.0000 C   0  0  1  0  0  0  0  0  0  0  0  0
    5.1350   -9.3450    0.0000 C   0  0  2  0  0  0  0  0  0  0  0  0
    5.1350   -8.3450    0.0000 C   0  0  2  0  0  0  0  0  0  0  0  0
    2.5369   -7.8450    0.0000 C   0  0  0  0  0  0  0  0  0  0  0  0
    6.0010   -6.8450    0.0000 C   0  0  0  0  0  0  0  0  0  0  0  0
    6.8671   -6.3450    0.0000 C   0  0  1  0  0  0  0  0  0  0  0  0
   12.0632    2.6550    0.0000 C   0  0  0  0  0  0  0  0  0  0  0  0
   11.1972    2.1550    0.0000 C   0  0  0  0  0  0  0  0  0  0  0  0
   12.0632    3.6550    0.0000 C   0  0  0  0  0  0  0  0  0  0  0  0
   11.1972    1.1550    0.0000 C   0  0  0  0  0  0  0  0  0  0  0  0
   12.9292    4.1550    0.0000 C   0  0  0  0  0  0  0  0  0  0  0  0
   10.3312    0.6550    0.0000 C   0  0  0  0  0  0  0  0  0  0  0  0
   12.9292    5.1550    0.0000 C   0  0  0  0  0  0  0  0  0  0  0  0
   10.3312   -0.3450    0.0000 C   0  0  0  0  0  0  0  0  0  0  0  0
   13.7953    5.6550    0.0000 C   0  0  0  0  0  0  0  0  0  0  0  0
    9.4651   -0.8450    0.0000 C   0  0  0  0  0  0  0  0  0  0  0  0
   13.7953    6.6550    0.0000 C   0  0  0  0  0  0  0  0  0  0  0  0
    9.4651   -1.8450    0.0000 C   0  0  0  0  0  0  0  0  0  0  0  0
    7.7331   -6.8450    0.0000 C   0  0  0  0  0  0  0  0  0  0  0  0
   14.6613    7.1550    0.0000 C   0  0  0  0  0  0  0  0  0  0  0  0
    8.5991   -2.3450    0.0000 C   0  0  0  0  0  0  0  0  0  0  0  0
   15.5273   -6.3450    0.0000 C   0  0  0  0  0  0  0  0  0  0  0  0
   14.6613   -6.8450    0.0000 C   0  0  0  0  0  0  0  0  0  0  0  0
   16.3933   -6.8450    0.0000 C   0  0  0  0  0  0  0  0  0  0  0  0
   13.7953   -6.3450    0.0000 C   0  0  0  0  0  0  0  0  0  0  0  0
   14.6613    8.1550    0.0000 C   0  0  0  0  0  0  0  0  0  0  0  0
    8.5991   -3.3450    0.0000 C   0  0  0  0  0  0  0  0  0  0  0  0
   17.2594   -6.3450    0.0000 C   0  0  0  0  0  0  0  0  0  0  0  0
   12.9292   -6.8450    0.0000 C   0  0  0  0  0  0  0  0  0  0  0  0
   18.1254   -6.8450    0.0000 C   0  0  0  0  0  0  0  0  0  0  0  0
    7.7331   -3.8450    0.0000 C   0  0  0  0  0  0  0  0  0  0  0  0
   12.0632   -6.3450    0.0000 C   0  0  0  0  0  0  0  0  0  0  0  0
   15.5273    8.6550    0.0000 C   0  0  0  0  0  0  0  0  0  0  0  0
   18.9914   -6.3450    0.0000 C   0  0  0  0  0  0  0  0  0  0  0  0
   11.1972   -6.8450    0.0000 C   0  0  0  0  0  0  0  0  0  0  0  0
    7.7331   -4.8450    0.0000 C   0  0  0  0  0  0  0  0  0  0  0  0
   19.8574   -6.8450    0.0000 C   0  0  0  0  0  0  0  0  0  0  0  0
   15.5273    9.6550    0.0000 C   0  0  0  0  0  0  0  0  0  0  0  0
   10.3312   -6.3450    0.0000 C   0  0  0  0  0  0  0  0  0  0  0  0
   20.7235   -6.3450    0.0000 C   0  0  0  0  0  0  0  0  0  0  0  0
    9.4651   -6.8450    0.0000 C   0  0  0  0  0  0  0  0  0  0  0  0
   16.3933   10.1550    0.0000 C   0  0  0  0  0  0  0  0  0  0  0  0
   21.5895   -6.8450    0.0000 C   0  0  0  0  0  0  0  0  0  0  0  0
   16.3933   11.1550    0.0000 C   0  0  0  0  0  0  0  0  0  0  0  0
   22.4555   -6.3450    0.0000 C   0  0  0  0  0  0  0  0  0  0  0  0
    3.4030   -9.9650    0.0000 H   0  0  0  0  0  0  0  0  0  0  0  0
    3.7321  -10.1550    0.0000 H   0  0  0  0  0  0  0  0  0  0  0  0
    3.4030   -7.7250    0.0000 H   0  0  0  0  0  0  0  0  0  0  0  0
    5.1350   -9.9650    0.0000 H   0  0  0  0  0  0  0  0  0  0  0  0
    5.1350   -7.7250    0.0000 H   0  0  0  0  0  0  0  0  0  0  0  0
    1.9264   -7.7373    0.0000 H   0  0  0  0  0  0  0  0  0  0  0  0
    2.3249   -8.4276    0.0000 H   0  0  0  0  0  0  0  0  0  0  0  0
    2.0000   -9.5350    0.0000 H   0  0  0  0  0  0  0  0  0  0  0  0
    3.7321  -11.1550    0.0000 H   0  0  0  0  0  0  0  0  0  0  0  0
    6.5380   -9.5350    0.0000 H   0  0  0  0  0  0  0  0  0  0  0  0
    5.7890   -6.2624    0.0000 H   0  0  0  0  0  0  0  0  0  0  0  0
    5.3905   -6.9527    0.0000 H   0  0  0  0  0  0  0  0  0  0  0  0
    7.4040   -6.0350    0.0000 H   0  0  0  0  0  0  0  0  0  0  0  0
    2.0000   -6.5350    0.0000 H   0  0  0  0  0  0  0  0  0  0  0  0
    3.0739   -6.5350    0.0000 H   0  0  0  0  0  0  0  0  0  0  0  0
   12.2753    2.0724    0.0000 H   0  0  0  0  0  0  0  0  0  0  0  0
   12.6738    2.7627    0.0000 H   0  0  0  0  0  0  0  0  0  0  0  0
   10.9851    2.7376    0.0000 H   0  0  0  0  0  0  0  0  0  0  0  0
   10.5866    2.0473    0.0000 H   0  0  0  0  0  0  0  0  0  0  0  0
   11.8512    4.2376    0.0000 H   0  0  0  0  0  0  0  0  0  0  0  0
   11.4526    3.5473    0.0000 H   0  0  0  0  0  0  0  0  0  0  0  0
   11.4092    0.5724    0.0000 H   0  0  0  0  0  0  0  0  0  0  0  0
   11.8078    1.2627    0.0000 H   0  0  0  0  0  0  0  0  0  0  0  0
   13.1413    3.5724    0.0000 H   0  0  0  0  0  0  0  0  0  0  0  0
   13.5398    4.2627    0.0000 H   0  0  0  0  0  0  0  0  0  0  0  0
   10.1191    1.2376    0.0000 H   0  0  0  0  0  0  0  0  0  0  0  0
    9.7206    0.5473    0.0000 H   0  0  0  0  0  0  0  0  0  0  0  0
   12.7172    5.7376    0.0000 H   0  0  0  0  0  0  0  0  0  0  0  0
   12.3187    5.0473    0.0000 H   0  0  0  0  0  0  0  0  0  0  0  0
   10.5432   -0.9276    0.0000 H   0  0  0  0  0  0  0  0  0  0  0  0
   10.9417   -0.2373    0.0000 H   0  0  0  0  0  0  0  0  0  0  0  0
   14.0073    5.0724    0.0000 H   0  0  0  0  0  0  0  0  0  0  0  0
   14.4058    5.7627    0.0000 H   0  0  0  0  0  0  0  0  0  0  0  0
    9.2531   -0.2624    0.0000 H   0  0  0  0  0  0  0  0  0  0  0  0
    8.8546   -0.9527    0.0000 H   0  0  0  0  0  0  0  0  0  0  0  0
   13.5832    7.2376    0.0000 H   0  0  0  0  0  0  0  0  0  0  0  0
   13.1847    6.5473    0.0000 H   0  0  0  0  0  0  0  0  0  0  0  0
    9.6772   -2.4276    0.0000 H   0  0  0  0  0  0  0  0  0  0  0  0
   10.0757   -1.7373    0.0000 H   0  0  0  0  0  0  0  0  0  0  0  0
    7.3346   -7.3200    0.0000 H   0  0  0  0  0  0  0  0  0  0  0  0
    8.1316   -7.3200    0.0000 H   0  0  0  0  0  0  0  0  0  0  0  0
   14.8733    6.5724    0.0000 H   0  0  0  0  0  0  0  0  0  0  0  0
   15.2719    7.2627    0.0000 H   0  0  0  0  0  0  0  0  0  0  0  0
    8.3871   -1.7624    0.0000 H   0  0  0  0  0  0  0  0  0  0  0  0
    7.9885   -2.4527    0.0000 H   0  0  0  0  0  0  0  0  0  0  0  0
   15.9258   -5.8701    0.0000 H   0  0  0  0  0  0  0  0  0  0  0  0
   15.1288   -5.8701    0.0000 H   0  0  0  0  0  0  0  0  0  0  0  0
   14.2628   -7.3200    0.0000 H   0  0  0  0  0  0  0  0  0  0  0  0
   15.0598   -7.3200    0.0000 H   0  0  0  0  0  0  0  0  0  0  0  0
   15.9948   -7.3200    0.0000 H   0  0  0  0  0  0  0  0  0  0  0  0
   16.7919   -7.3200    0.0000 H   0  0  0  0  0  0  0  0  0  0  0  0
   14.1938   -5.8701    0.0000 H   0  0  0  0  0  0  0  0  0  0  0  0
   13.3967   -5.8701    0.0000 H   0  0  0  0  0  0  0  0  0  0  0  0
   14.4492    8.7376    0.0000 H   0  0  0  0  0  0  0  0  0  0  0  0
   14.0507    8.0473    0.0000 H   0  0  0  0  0  0  0  0  0  0  0  0
   17.6579   -5.8701    0.0000 H   0  0  0  0  0  0  0  0  0  0  0  0
   16.8608   -5.8701    0.0000 H   0  0  0  0  0  0  0  0  0  0  0  0
    8.8112   -3.9276    0.0000 H   0  0  0  0  0  0  0  0  0  0  0  0
    9.2097   -3.2373    0.0000 H   0  0  0  0  0  0  0  0  0  0  0  0
   12.5307   -7.3200    0.0000 H   0  0  0  0  0  0  0  0  0  0  0  0
   13.3278   -7.3200    0.0000 H   0  0  0  0  0  0  0  0  0  0  0  0
   17.7269   -7.3200    0.0000 H   0  0  0  0  0  0  0  0  0  0  0  0
   18.5239   -7.3200    0.0000 H   0  0  0  0  0  0  0  0  0  0  0  0
    7.5210   -3.2624    0.0000 H   0  0  0  0  0  0  0  0  0  0  0  0
    7.1225   -3.9527    0.0000 H   0  0  0  0  0  0  0  0  0  0  0  0
   12.4617   -5.8701    0.0000 H   0  0  0  0  0  0  0  0  0  0  0  0
   11.6647   -5.8701    0.0000 H   0  0  0  0  0  0  0  0  0  0  0  0
   15.7394    8.0724    0.0000 H   0  0  0  0  0  0  0  0  0  0  0  0
   16.1379    8.7627    0.0000 H   0  0  0  0  0  0  0  0  0  0  0  0
   19.3899   -5.8701    0.0000 H   0  0  0  0  0  0  0  0  0  0  0  0
   18.5929   -5.8701    0.0000 H   0  0  0  0  0  0  0  0  0  0  0  0
   10.7987   -7.3200    0.0000 H   0  0  0  0  0  0  0  0  0  0  0  0
   11.5957   -7.3200    0.0000 H   0  0  0  0  0  0  0  0  0  0  0  0
   19.4589   -7.3200    0.0000 H   0  0  0  0  0  0  0  0  0  0  0  0
   20.2560   -7.3200    0.0000 H   0  0  0  0  0  0  0  0  0  0  0  0
   15.3153   10.2376    0.0000 H   0  0  0  0  0  0  0  0  0  0  0  0
   14.9167    9.5473    0.0000 H   0  0  0  0  0  0  0  0  0  0  0  0
   10.7297   -5.8701    0.0000 H   0  0  0  0  0  0  0  0  0  0  0  0
    9.9326   -5.8701    0.0000 H   0  0  0  0  0  0  0  0  0  0  0  0
   21.1220   -5.8701    0.0000 H   0  0  0  0  0  0  0  0  0  0  0  0
   20.3249   -5.8701    0.0000 H   0  0  0  0  0  0  0  0  0  0  0  0
   16.6054    9.5724    0.0000 H   0  0  0  0  0  0  0  0  0  0  0  0
   17.0039   10.2627    0.0000 H   0  0  0  0  0  0  0  0  0  0  0  0
   21.1910   -7.3200    0.0000 H   0  0  0  0  0  0  0  0  0  0  0  0
   21.9880   -7.3200    0.0000 H   0  0  0  0  0  0  0  0  0  0  0  0
   17.0133   11.1550    0.0000 H   0  0  0  0  0  0  0  0  0  0  0  0
   16.3933   11.7750    0.0000 H   0  0  0  0  0  0  0  0  0  0  0  0
   15.7733   11.1550    0.0000 H   0  0  0  0  0  0  0  0  0  0  0  0
   22.7655   -6.8819    0.0000 H   0  0  0  0  0  0  0  0  0  0  0  0
   22.9925   -6.0350    0.0000 H   0  0  0  0  0  0  0  0  0  0  0  0
   22.1455   -5.8081    0.0000 H   0  0  0  0  0  0  0  0  0  0  0  0
  1 13  1  0  0  0  0
  1 15  1  0  0  0  0
 15  2  1  6  0  0  0
  2 17  1  0  0  0  0
 11  3  1  6  0  0  0
  3 65  1  0  0  0  0
 12  4  1  1  0  0  0
  4 66  1  0  0  0  0
 14  5  1  6  0  0  0
  5 67  1  0  0  0  0
 18  6  1  6  0  0  0
  6 48  1  0  0  0  0
  7 31  1  0  0  0  0
  7 53  1  0  0  0  0
  8 48  2  0  0  0  0
  9 53  2  0  0  0  0
 10 16  1  0  0  0  0
 10 71  1  0  0  0  0
 10 72  1  0  0  0  0
 11 12  1  0  0  0  0
 11 13  1  0  0  0  0
 11 58  1  0  0  0  0
 12 14  1  0  0  0  0
 12 59  1  0  0  0  0
 13 16  1  1  0  0  0
 13 60  1  0  0  0  0
 14 15  1  0  0  0  0
 14 61  1  0  0  0  0
 15 62  1  0  0  0  0
 16 63  1  0  0  0  0
 16 64  1  0  0  0  0
 17 18  1  0  0  0  0
 17 68  1  0  0  0  0
 17 69  1  0  0  0  0
 18 31  1  0  0  0  0
 18 70  1  0  0  0  0
 19 20  1  0  0  0  0
 19 21  1  0  0  0  0
 19 73  1  0  0  0  0
 19 74  1  0  0  0  0
 20 22  1  0  0  0  0
 20 75  1  0  0  0  0
 20 76  1  0  0  0  0
 21 23  1  0  0  0  0
 21 77  1  0  0  0  0
 21 78  1  0  0  0  0
 22 24  1  0  0  0  0
 22 79  1  0  0  0  0
 22 80  1  0  0  0  0
 23 25  1  0  0  0  0
 23 81  1  0  0  0  0
 23 82  1  0  0  0  0
 24 26  1  0  0  0  0
 24 83  1  0  0  0  0
 24 84  1  0  0  0  0
 25 27  1  0  0  0  0
 25 85  1  0  0  0  0
 25 86  1  0  0  0  0
 26 28  1  0  0  0  0
 26 87  1  0  0  0  0
 26 88  1  0  0  0  0
 27 29  1  0  0  0  0
 27 89  1  0  0  0  0
 27 90  1  0  0  0  0
 28 30  1  0  0  0  0
 28 91  1  0  0  0  0
 28 92  1  0  0  0  0
 29 32  1  0  0  0  0
 29 93  1  0  0  0  0
 29 94  1  0  0  0  0
 30 33  1  0  0  0  0
 30 95  1  0  0  0  0
 30 96  1  0  0  0  0
 31 97  1  0  0  0  0
 31 98  1  0  0  0  0
 32 38  1  0  0  0  0
 32 99  1  0  0  0  0
 32100  1  0  0  0  0
 33 39  1  0  0  0  0
 33101  1  0  0  0  0
 33102  1  0  0  0  0
 34 35  1  0  0  0  0
 34 36  1  0  0  0  0
 34103  1  0  0  0  0
 34104  1  0  0  0  0
 35 37  1  0  0  0  0
 35105  1  0  0  0  0
 35106  1  0  0  0  0
 36 40  1  0  0  0  0
 36107  1  0  0  0  0
 36108  1  0  0  0  0
 37 41  1  0  0  0  0
 37109  1  0  0  0  0
 37110  1  0  0  0  0
 38 45  1  0  0  0  0
 38111  1  0  0  0  0
 38112  1  0  0  0  0
 39 43  1  0  0  0  0
 39115  1  0  0  0  0
 39116  1  0  0  0  0
 40 42  1  0  0  0  0
 40113  1  0  0  0  0
 40114  1  0  0  0  0
 41 44  1  0  0  0  0
 41117  1  0  0  0  0
 41118  1  0  0  0  0
 42 46  1  0  0  0  0
 42119  1  0  0  0  0
 42120  1  0  0  0  0
 43 48  1  0  0  0  0
 43121  1  0  0  0  0
 43122  1  0  0  0  0
 44 47  1  0  0  0  0
 44123  1  0  0  0  0
 44124  1  0  0  0  0
 45 50  1  0  0  0  0
 45125  1  0  0  0  0
 45126  1  0  0  0  0
 46 49  1  0  0  0  0
 46127  1  0  0  0  0
 46128  1  0  0  0  0
 47 51  1  0  0  0  0
 47129  1  0  0  0  0
 47130  1  0  0  0  0
 49 52  1  0  0  0  0
 49131  1  0  0  0  0
 49132  1  0  0  0  0
 50 54  1  0  0  0  0
 50133  1  0  0  0  0
 50134  1  0  0  0  0
 51 53  1  0  0  0  0
 51135  1  0  0  0  0
 51136  1  0  0  0  0
 52 55  1  0  0  0  0
 52137  1  0  0  0  0
 52138  1  0  0  0  0
 54 56  1  0  0  0  0
 54139  1  0  0  0  0
 54140  1  0  0  0  0
 55 57  1  0  0  0  0
 55141  1  0  0  0  0
 55142  1  0  0  0  0
 56143  1  0  0  0  0
 56144  1  0  0  0  0
 56145  1  0  0  0  0
 57146  1  0  0  0  0
 57147  1  0  0  0  0
 57148  1  0  0  0  0
M  END
> <PUBCHEM_COMPOUND_CID>
23643935

> <PUBCHEM_COMPOUND_CANONICALIZED>
1

> <PUBCHEM_CACTVS_COMPLEXITY>
908

> <PUBCHEM_CACTVS_HBOND_ACCEPTOR>
10

> <PUBCHEM_CACTVS_HBOND_DONOR>
4

> <PUBCHEM_CACTVS_ROTATABLE_BOND>
43

> <PUBCHEM_CACTVS_SUBSKEYS>
AAADcfB+PAAAAAAAAAAAAAAAAAAAAAAAAAAkAAAAAAAAAAAAAAAAHgAQCAAACBTxgAcCCABABgAIAACQCAAAAAAAAAAAAIEAAAATEBIAgAAjQAAHEAAHAAH4+KyAAAAAAAAAAAAAAAAAAAAAAAAAAAAAAA==

> <PUBCHEM_IUPAC_OPENEYE_NAME>
[(1S)-1-[[(2S,3R,4S,5S,6R)-6-(aminomethyl)-3,4,5-trihydroxy-tetrahydropyran-2-yl]oxymethyl]-2-hexadecanoyloxy-ethyl] docosanoate

> <PUBCHEM_IUPAC_CAS_NAME>
docosanoic acid [(2S)-1-[[(2S,3R,4S,5S,6R)-6-(aminomethyl)-3,4,5-trihydroxy-2-oxanyl]oxy]-3-(1-oxohexadecoxy)propan-2-yl] ester

> <PUBCHEM_IUPAC_NAME_MARKUP>
[(2<I>S</I>)-1-[(2<I>S</I>,3<I>R</I>,4<I>S</I>,5<I>S</I>,6<I>R</I>)-6-(aminomethyl)-3,4,5-trihydroxyoxan-2-yl]oxy-3-hexadecanoyloxypropan-2-yl] docosanoate

> <PUBCHEM_IUPAC_NAME>
[(2S)-1-[(2S,3R,4S,5S,6R)-6-(aminomethyl)-3,4,5-trihydroxyoxan-2-yl]oxy-3-hexadecanoyloxypropan-2-yl] docosanoate

> <PUBCHEM_IUPAC_SYSTEMATIC_NAME>
[(2S)-1-[(2S,3R,4S,5S,6R)-6-(aminomethyl)-3,4,5-tris(oxidanyl)oxan-2-yl]oxy-3-hexadecanoyloxy-propan-2-yl] docosanoate

> <PUBCHEM_IUPAC_TRADITIONAL_NAME>
behenic acid [(1S)-1-[[(2S,3R,4S,5S,6R)-6-(aminomethyl)-3,4,5-trihydroxy-tetrahydropyran-2-yl]oxymethyl]-2-hexadecanoyloxy-ethyl] ester

> <PUBCHEM_IUPAC_INCHI>
InChI=1S/C47H91NO9/c1-3-5-7-9-11-13-15-17-18-19-20-21-22-24-26-28-30-32-34-36-43(50)56-40(39-55-47-46(53)45(52)44(51)41(37-48)57-47)38-54-42(49)35-33-31-29-27-25-23-16-14-12-10-8-6-4-2/h40-41,44-47,51-53H,3-39,48H2,1-2H3/t40-,41-,44-,45+,46-,47+/m1/s1

> <PUBCHEM_IUPAC_INCHIKEY>
BZZSCXPOEAFLES-NUTCYAROSA-N

> <PUBCHEM_XLOGP3_AA>
15.4

> <PUBCHEM_EXACT_MASS>
813.66938348

> <PUBCHEM_MOLECULAR_FORMULA>
C47H91NO9

> <PUBCHEM_MOLECULAR_WEIGHT>
814.2

> <PUBCHEM_SMILES>
CCCCCCCCCCCCCCCCCCCCCC(=O)O[C@@H](CO[C@@H]1[C@@H]([C@H]([C@@H]([C@H](O1)CN)O)O)O)COC(=O)CCCCCCCCCCCCCCC

> <PUBCHEM_CONNECTIVITY_SMILES>
CCCCCCCCCCCCCCCCCCCCCC(=O)OC(COC1C(C(C(C(O1)CN)O)O)O)COC(=O)CCCCCCCCCCCCCCC

> <PUBCHEM_CACTVS_TPSA>
158

> <PUBCHEM_MONOISOTOPIC_WEIGHT>
813.66938348

> <PUBCHEM_TOTAL_CHARGE>
0

> <PUBCHEM_HEAVY_ATOM_COUNT>
57

> <PUBCHEM_ATOM_DEF_STEREO_COUNT>
6

> <PUBCHEM_ATOM_UDEF_STEREO_COUNT>
0

> <PUBCHEM_BOND_DEF_STEREO_COUNT>
0

> <PUBCHEM_BOND_UDEF_STEREO_COUNT>
0

> <PUBCHEM_ISOTOPIC_ATOM_COUNT>
0

> <PUBCHEM_COMPONENT_COUNT>
1

> <PUBCHEM_CACTVS_TAUTO_COUNT>
-1

> <PUBCHEM_COORDINATE_TYPE>
1
5
255

> <PUBCHEM_BONDANNOTATIONS>
13  16  5
15  2  6
11  3  6
12  4  5
14  5  6
18  6  6

$$$$
