92234
  -OEChem-01202613442D

 93 90  0     0  0  0  0  0  0999 V2000
    4.5505    7.2935    0.0000 C   0  0  0  0  0  0  0  0  0  0  0  0
    5.4165    6.7935    0.0000 C   0  0  0  0  0  0  0  0  0  0  0  0
    4.5505    8.2935    0.0000 C   0  0  0  0  0  0  0  0  0  0  0  0
    5.4165    5.7935    0.0000 C   0  0  0  0  0  0  0  0  0  0  0  0
    3.6845    5.7935    0.0000 C   0  0  0  0  0  0  0  0  0  0  0  0
    4.5505    5.2935    0.0000 C   0  0  0  0  0  0  0  0  0  0  0  0
    3.6845    6.7935    0.0000 C   0  0  0  0  0  0  0  0  0  0  0  0
    9.5405   11.2769    0.0000 C   0  0  0  0  0  0  0  0  0  0  0  0
    8.6745   10.7769    0.0000 C   0  0  0  0  0  0  0  0  0  0  0  0
    9.5405   12.2769    0.0000 C   0  0  0  0  0  0  0  0  0  0  0  0
    8.6745    9.7769    0.0000 C   0  0  0  0  0  0  0  0  0  0  0  0
    5.4165    8.7935    0.0000 C   0  0  0  0  0  0  0  0  0  0  0  0
    3.6845    8.7935    0.0000 C   0  0  0  0  0  0  0  0  0  0  0  0
    9.5037    3.6200    0.0000 C   0  0  0  0  0  0  0  0  0  0  0  0
    9.5037    4.6200    0.0000 C   0  0  0  0  0  0  0  0  0  0  0  0
    9.5405    9.2769    0.0000 C   0  0  0  0  0  0  0  0  0  0  0  0
   10.3697    3.1200    0.0000 C   0  0  0  0  0  0  0  0  0  0  0  0
   10.4065   10.7769    0.0000 C   0  0  0  0  0  0  0  0  0  0  0  0
    8.6377    2.1200    0.0000 C   0  0  0  0  0  0  0  0  0  0  0  0
    8.6377    3.1200    0.0000 C   0  0  0  0  0  0  0  0  0  0  0  0
   10.4065    9.7769    0.0000 C   0  0  0  0  0  0  0  0  0  0  0  0
   10.4065   12.7769    0.0000 C   0  0  0  0  0  0  0  0  0  0  0  0
    8.6745   12.7769    0.0000 C   0  0  0  0  0  0  0  0  0  0  0  0
    9.5037    1.6200    0.0000 C   0  0  0  0  0  0  0  0  0  0  0  0
   10.3697    2.1200    0.0000 C   0  0  0  0  0  0  0  0  0  0  0  0
    4.5505    4.2935    0.0000 C   0  0  0  0  0  0  0  0  0  0  0  0
   10.3697    5.1200    0.0000 C   0  0  0  0  0  0  0  0  0  0  0  0
    8.6377    5.1200    0.0000 C   0  0  0  0  0  0  0  0  0  0  0  0
    9.5405    8.2769    0.0000 C   0  0  0  0  0  0  0  0  0  0  0  0
    9.5037    0.6200    0.0000 C   0  0  0  0  0  0  0  0  0  0  0  0
   13.5172    6.6569    0.0000 C   0  0  0  0  0  0  0  0  0  0  0  0
    0.5369    5.1200    0.0000 C   0  0  0  0  0  0  0  0  0  0  0  0
    0.5369    8.1939    0.0000 C   0  0  0  0  0  0  0  0  0  0  0  0
    6.0271    6.6858    0.0000 H   0  0  0  0  0  0  0  0  0  0  0  0
    5.6286    7.3761    0.0000 H   0  0  0  0  0  0  0  0  0  0  0  0
    4.5505    8.9135    0.0000 H   0  0  0  0  0  0  0  0  0  0  0  0
    5.6286    5.2109    0.0000 H   0  0  0  0  0  0  0  0  0  0  0  0
    6.0271    5.9011    0.0000 H   0  0  0  0  0  0  0  0  0  0  0  0
    3.0739    5.9011    0.0000 H   0  0  0  0  0  0  0  0  0  0  0  0
    3.4724    5.2109    0.0000 H   0  0  0  0  0  0  0  0  0  0  0  0
    3.1475    7.1035    0.0000 H   0  0  0  0  0  0  0  0  0  0  0  0
    8.4624   11.3595    0.0000 H   0  0  0  0  0  0  0  0  0  0  0  0
    8.0639   10.6693    0.0000 H   0  0  0  0  0  0  0  0  0  0  0  0
    9.0036   11.9669    0.0000 H   0  0  0  0  0  0  0  0  0  0  0  0
    8.0639    9.8846    0.0000 H   0  0  0  0  0  0  0  0  0  0  0  0
    8.4624    9.1943    0.0000 H   0  0  0  0  0  0  0  0  0  0  0  0
    5.7265    8.2565    0.0000 H   0  0  0  0  0  0  0  0  0  0  0  0
    5.9534    9.1035    0.0000 H   0  0  0  0  0  0  0  0  0  0  0  0
    5.1065    9.3304    0.0000 H   0  0  0  0  0  0  0  0  0  0  0  0
    3.9945    9.3304    0.0000 H   0  0  0  0  0  0  0  0  0  0  0  0
    3.1475    9.1035    0.0000 H   0  0  0  0  0  0  0  0  0  0  0  0
    3.3745    8.2565    0.0000 H   0  0  0  0  0  0  0  0  0  0  0  0
    9.5037    5.2400    0.0000 H   0  0  0  0  0  0  0  0  0  0  0  0
   10.9803    3.0123    0.0000 H   0  0  0  0  0  0  0  0  0  0  0  0
   10.5818    3.7026    0.0000 H   0  0  0  0  0  0  0  0  0  0  0  0
   10.9435   11.0869    0.0000 H   0  0  0  0  0  0  0  0  0  0  0  0
    8.0271    2.2277    0.0000 H   0  0  0  0  0  0  0  0  0  0  0  0
    8.4256    1.5374    0.0000 H   0  0  0  0  0  0  0  0  0  0  0  0
    8.1007    3.4300    0.0000 H   0  0  0  0  0  0  0  0  0  0  0  0
   10.9435    9.4669    0.0000 H   0  0  0  0  0  0  0  0  0  0  0  0
   10.7165   12.2400    0.0000 H   0  0  0  0  0  0  0  0  0  0  0  0
   10.9435   13.0869    0.0000 H   0  0  0  0  0  0  0  0  0  0  0  0
   10.0965   13.3139    0.0000 H   0  0  0  0  0  0  0  0  0  0  0  0
    8.9845   13.3139    0.0000 H   0  0  0  0  0  0  0  0  0  0  0  0
    8.1376   13.0869    0.0000 H   0  0  0  0  0  0  0  0  0  0  0  0
    8.3645   12.2400    0.0000 H   0  0  0  0  0  0  0  0  0  0  0  0
   10.9067    1.8100    0.0000 H   0  0  0  0  0  0  0  0  0  0  0  0
    4.0135    3.9835    0.0000 H   0  0  0  0  0  0  0  0  0  0  0  0
    5.0874    3.9835    0.0000 H   0  0  0  0  0  0  0  0  0  0  0  0
   10.6797    4.5831    0.0000 H   0  0  0  0  0  0  0  0  0  0  0  0
   10.9067    5.4300    0.0000 H   0  0  0  0  0  0  0  0  0  0  0  0
   10.0597    5.6569    0.0000 H   0  0  0  0  0  0  0  0  0  0  0  0
    8.9477    5.6569    0.0000 H   0  0  0  0  0  0  0  0  0  0  0  0
    8.1007    5.4300    0.0000 H   0  0  0  0  0  0  0  0  0  0  0  0
    8.3277    4.5831    0.0000 H   0  0  0  0  0  0  0  0  0  0  0  0
    8.9205    8.2769    0.0000 H   0  0  0  0  0  0  0  0  0  0  0  0
    9.5405    7.6569    0.0000 H   0  0  0  0  0  0  0  0  0  0  0  0
   10.1605    8.2769    0.0000 H   0  0  0  0  0  0  0  0  0  0  0  0
    8.8837    0.6200    0.0000 H   0  0  0  0  0  0  0  0  0  0  0  0
    9.5037    0.0000    0.0000 H   0  0  0  0  0  0  0  0  0  0  0  0
   10.1237    0.6200    0.0000 H   0  0  0  0  0  0  0  0  0  0  0  0
   14.0542    6.9669    0.0000 H   0  0  0  0  0  0  0  0  0  0  0  0
   12.9803    6.3469    0.0000 H   0  0  0  0  0  0  0  0  0  0  0  0
   13.2072    7.1939    0.0000 H   0  0  0  0  0  0  0  0  0  0  0  0
   13.8272    6.1200    0.0000 H   0  0  0  0  0  0  0  0  0  0  0  0
    1.0739    5.4300    0.0000 H   0  0  0  0  0  0  0  0  0  0  0  0
    0.0000    4.8100    0.0000 H   0  0  0  0  0  0  0  0  0  0  0  0
    0.2269    5.6569    0.0000 H   0  0  0  0  0  0  0  0  0  0  0  0
    0.8469    4.5831    0.0000 H   0  0  0  0  0  0  0  0  0  0  0  0
    1.0739    8.5039    0.0000 H   0  0  0  0  0  0  0  0  0  0  0  0
    0.0000    7.8839    0.0000 H   0  0  0  0  0  0  0  0  0  0  0  0
    0.2269    8.7308    0.0000 H   0  0  0  0  0  0  0  0  0  0  0  0
    0.8469    7.6569    0.0000 H   0  0  0  0  0  0  0  0  0  0  0  0
  1  2  1  0  0  0  0
  1  3  1  0  0  0  0
  1  7  2  0  0  0  0
  2  4  1  0  0  0  0
  2 34  1  0  0  0  0
  2 35  1  0  0  0  0
  3 12  1  0  0  0  0
  3 13  1  0  0  0  0
  3 36  1  0  0  0  0
  4  6  1  0  0  0  0
  4 37  1  0  0  0  0
  4 38  1  0  0  0  0
  5  6  1  0  0  0  0
  5  7  1  0  0  0  0
  5 39  1  0  0  0  0
  5 40  1  0  0  0  0
  6 26  2  0  0  0  0
  7 41  1  0  0  0  0
  8  9  1  0  0  0  0
  8 10  1  0  0  0  0
  8 18  2  0  0  0  0
  9 11  1  0  0  0  0
  9 42  1  0  0  0  0
  9 43  1  0  0  0  0
 10 22  1  0  0  0  0
 10 23  1  0  0  0  0
 10 44  1  0  0  0  0
 11 16  1  0  0  0  0
 11 45  1  0  0  0  0
 11 46  1  0  0  0  0
 12 47  1  0  0  0  0
 12 48  1  0  0  0  0
 12 49  1  0  0  0  0
 13 50  1  0  0  0  0
 13 51  1  0  0  0  0
 13 52  1  0  0  0  0
 14 15  1  0  0  0  0
 14 17  1  0  0  0  0
 14 20  2  0  0  0  0
 15 27  1  0  0  0  0
 15 28  1  0  0  0  0
 15 53  1  0  0  0  0
 16 21  2  0  0  0  0
 16 29  1  0  0  0  0
 17 25  1  0  0  0  0
 17 54  1  0  0  0  0
 17 55  1  0  0  0  0
 18 21  1  0  0  0  0
 18 56  1  0  0  0  0
 19 20  1  0  0  0  0
 19 24  1  0  0  0  0
 19 57  1  0  0  0  0
 19 58  1  0  0  0  0
 20 59  1  0  0  0  0
 21 60  1  0  0  0  0
 22 61  1  0  0  0  0
 22 62  1  0  0  0  0
 22 63  1  0  0  0  0
 23 64  1  0  0  0  0
 23 65  1  0  0  0  0
 23 66  1  0  0  0  0
 24 25  2  0  0  0  0
 24 30  1  0  0  0  0
 25 67  1  0  0  0  0
 26 68  1  0  0  0  0
 26 69  1  0  0  0  0
 27 70  1  0  0  0  0
 27 71  1  0  0  0  0
 27 72  1  0  0  0  0
 28 73  1  0  0  0  0
 28 74  1  0  0  0  0
 28 75  1  0  0  0  0
 29 76  1  0  0  0  0
 29 77  1  0  0  0  0
 29 78  1  0  0  0  0
 30 79  1  0  0  0  0
 30 80  1  0  0  0  0
 30 81  1  0  0  0  0
 31 82  1  0  0  0  0
 31 83  1  0  0  0  0
 31 84  1  0  0  0  0
 31 85  1  0  0  0  0
 32 86  1  0  0  0  0
 32 87  1  0  0  0  0
 32 88  1  0  0  0  0
 32 89  1  0  0  0  0
 33 90  1  0  0  0  0
 33 91  1  0  0  0  0
 33 92  1  0  0  0  0
 33 93  1  0  0  0  0
M  END
> <PUBCHEM_COMPOUND_CID>
92234

> <PUBCHEM_COMPOUND_CANONICALIZED>
1

> <PUBCHEM_CACTVS_COMPLEXITY>
502

> <PUBCHEM_CACTVS_HBOND_ACCEPTOR>
0

> <PUBCHEM_CACTVS_HBOND_DONOR>
0

> <PUBCHEM_CACTVS_ROTATABLE_BOND>
3

> <PUBCHEM_CACTVS_SUBSKEYS>
AAADcfB8AAAAAAAAAAAAAAAAAAAAAAAAAAAgQIAAAAAAAAAAAAAAGAAAAAAADQCAAAACAAAAAACAAiBCAAAAAAAgAAAACAAAAAgIAAIAAQAAAAAAgAAIgAMAgMAMAAAAAAAAAAAAAAAAAAAAAAAAAAAAAA==

> <PUBCHEM_IUPAC_OPENEYE_NAME>
1-isopropyl-4-methyl-cyclohexa-1,3-diene;1-isopropyl-4-methyl-cyclohexa-1,4-diene;1-isopropyl-4-methylene-cyclohexene;methane

> <PUBCHEM_IUPAC_CAS_NAME>
methane;4-methylene-1-propan-2-ylcyclohexene;1-methyl-4-propan-2-ylcyclohexa-1,3-diene;1-methyl-4-propan-2-ylcyclohexa-1,4-diene

> <PUBCHEM_IUPAC_NAME_MARKUP>
methane;4-methylidene-1-propan-2-ylcyclohexene;1-methyl-4-propan-2-ylcyclohexa-1,3-diene;1-methyl-4-propan-2-ylcyclohexa-1,4-diene

> <PUBCHEM_IUPAC_NAME>
methane;4-methylidene-1-propan-2-ylcyclohexene;1-methyl-4-propan-2-ylcyclohexa-1,3-diene;1-methyl-4-propan-2-ylcyclohexa-1,4-diene

> <PUBCHEM_IUPAC_SYSTEMATIC_NAME>
methane;4-methylidene-1-propan-2-yl-cyclohexene;1-methyl-4-propan-2-yl-cyclohexa-1,3-diene;1-methyl-4-propan-2-yl-cyclohexa-1,4-diene

> <PUBCHEM_IUPAC_TRADITIONAL_NAME>
1-isopropyl-4-methyl-cyclohexa-1,3-diene;1-isopropyl-4-methyl-cyclohexa-1,4-diene;1-isopropyl-4-methylene-cyclohexene;methane

> <PUBCHEM_IUPAC_INCHI>
InChI=1S/3C10H16.3CH4/c3*1-8(2)10-6-4-9(3)5-7-10;;;/h4,7-8H,5-6H2,1-3H3;4,6,8H,5,7H2,1-3H3;6,8H,3-5,7H2,1-2H3;3*1H4

> <PUBCHEM_IUPAC_INCHIKEY>
GJKOIJLRHDVXJX-UHFFFAOYSA-N

> <PUBCHEM_EXACT_MASS>
456.469501914

> <PUBCHEM_MOLECULAR_FORMULA>
C33H60

> <PUBCHEM_MOLECULAR_WEIGHT>
456.8

> <PUBCHEM_SMILES>
C.C.C.CC1=CC=C(CC1)C(C)C.CC1=CCC(=CC1)C(C)C.CC(C)C1=CCC(=C)CC1

> <PUBCHEM_CONNECTIVITY_SMILES>
C.C.C.CC1=CC=C(CC1)C(C)C.CC1=CCC(=CC1)C(C)C.CC(C)C1=CCC(=C)CC1

> <PUBCHEM_CACTVS_TPSA>
0

> <PUBCHEM_MONOISOTOPIC_WEIGHT>
456.469501914

> <PUBCHEM_TOTAL_CHARGE>
0

> <PUBCHEM_HEAVY_ATOM_COUNT>
33

> <PUBCHEM_ATOM_DEF_STEREO_COUNT>
0

> <PUBCHEM_ATOM_UDEF_STEREO_COUNT>
0

> <PUBCHEM_BOND_DEF_STEREO_COUNT>
0

> <PUBCHEM_BOND_UDEF_STEREO_COUNT>
0

> <PUBCHEM_ISOTOPIC_ATOM_COUNT>
0

> <PUBCHEM_COMPONENT_COUNT>
6

> <PUBCHEM_CACTVS_TAUTO_COUNT>
-1

> <PUBCHEM_COORDINATE_TYPE>
1
5
255

$$$$
