15142
  -OEChem-01202622142D

 25 27  0     0  0  0  0  0  0999 V2000
    4.5274    0.6618    0.0000 N   0  0  0  0  0  0  0  0  0  0  0  0
    5.0274   -0.8771    0.0000 C   0  0  0  0  0  0  0  0  0  0  0  0
    4.0274   -0.8771    0.0000 C   0  0  0  0  0  0  0  0  0  0  0  0
    5.3364    0.0740    0.0000 C   0  0  0  0  0  0  0  0  0  0  0  0
    3.7183    0.0740    0.0000 C   0  0  0  0  0  0  0  0  0  0  0  0
    5.7123   -1.6618    0.0000 C   0  0  0  0  0  0  0  0  0  0  0  0
    3.3424   -1.6618    0.0000 C   0  0  0  0  0  0  0  0  0  0  0  0
    6.3518    0.3063    0.0000 C   0  0  0  0  0  0  0  0  0  0  0  0
    2.7029    0.3063    0.0000 C   0  0  0  0  0  0  0  0  0  0  0  0
    4.5274    1.6618    0.0000 C   0  0  0  0  0  0  0  0  0  0  0  0
    6.7328   -1.4531    0.0000 C   0  0  0  0  0  0  0  0  0  0  0  0
    2.3219   -1.4531    0.0000 C   0  0  0  0  0  0  0  0  0  0  0  0
    7.0547   -0.4624    0.0000 C   0  0  0  0  0  0  0  0  0  0  0  0
    2.0000   -0.4624    0.0000 C   0  0  0  0  0  0  0  0  0  0  0  0
    5.5139   -2.2492    0.0000 H   0  0  0  0  0  0  0  0  0  0  0  0
    3.5408   -2.2492    0.0000 H   0  0  0  0  0  0  0  0  0  0  0  0
    6.5365    0.8981    0.0000 H   0  0  0  0  0  0  0  0  0  0  0  0
    2.5182    0.8981    0.0000 H   0  0  0  0  0  0  0  0  0  0  0  0
    5.1474    1.6618    0.0000 H   0  0  0  0  0  0  0  0  0  0  0  0
    4.5274    2.2818    0.0000 H   0  0  0  0  0  0  0  0  0  0  0  0
    3.9074    1.6618    0.0000 H   0  0  0  0  0  0  0  0  0  0  0  0
    7.1459   -1.9154    0.0000 H   0  0  0  0  0  0  0  0  0  0  0  0
    1.9088   -1.9154    0.0000 H   0  0  0  0  0  0  0  0  0  0  0  0
    7.6607   -0.3312    0.0000 H   0  0  0  0  0  0  0  0  0  0  0  0
    1.3941   -0.3312    0.0000 H   0  0  0  0  0  0  0  0  0  0  0  0
  1  4  1  0  0  0  0
  1  5  1  0  0  0  0
  1 10  1  0  0  0  0
  2  3  1  0  0  0  0
  2  4  1  0  0  0  0
  2  6  2  0  0  0  0
  3  5  1  0  0  0  0
  3  7  2  0  0  0  0
  4  8  2  0  0  0  0
  5  9  2  0  0  0  0
  6 11  1  0  0  0  0
  6 15  1  0  0  0  0
  7 12  1  0  0  0  0
  7 16  1  0  0  0  0
  8 13  1  0  0  0  0
  8 17  1  0  0  0  0
  9 14  1  0  0  0  0
  9 18  1  0  0  0  0
 10 19  1  0  0  0  0
 10 20  1  0  0  0  0
 10 21  1  0  0  0  0
 11 13  2  0  0  0  0
 11 22  1  0  0  0  0
 12 14  2  0  0  0  0
 12 23  1  0  0  0  0
 13 24  1  0  0  0  0
 14 25  1  0  0  0  0
M  END
> <PUBCHEM_COMPOUND_CID>
15142

> <PUBCHEM_COMPOUND_CANONICALIZED>
1

> <PUBCHEM_CACTVS_COMPLEXITY>
191

> <PUBCHEM_CACTVS_HBOND_ACCEPTOR>
0

> <PUBCHEM_CACTVS_HBOND_DONOR>
0

> <PUBCHEM_CACTVS_ROTATABLE_BOND>
0

> <PUBCHEM_CACTVS_SUBSKEYS>
AAADccByAAAAAAAAAAAAAAAAAAAAAWAAAAAwYAAAAAAAAFgB/AAAHAAAAAAADAiBHgQywPMMEACgAyRiRACCgCAhAiAI2CA4ZJgIIOLAkZGEIAhggADIyAcQgMAOgAAAAAACAAAAAAAAAAQAAAAAAAAAAA==

> <PUBCHEM_IUPAC_OPENEYE_NAME>
9-methylcarbazole

> <PUBCHEM_IUPAC_CAS_NAME>
9-methylcarbazole

> <PUBCHEM_IUPAC_NAME_MARKUP>
9-methylcarbazole

> <PUBCHEM_IUPAC_NAME>
9-methylcarbazole

> <PUBCHEM_IUPAC_SYSTEMATIC_NAME>
9-methylcarbazole

> <PUBCHEM_IUPAC_TRADITIONAL_NAME>
9-methylcarbazole

> <PUBCHEM_IUPAC_INCHI>
InChI=1S/C13H11N/c1-14-12-8-4-2-6-10(12)11-7-3-5-9-13(11)14/h2-9H,1H3

> <PUBCHEM_IUPAC_INCHIKEY>
SDFLTYHTFPTIGX-UHFFFAOYSA-N

> <PUBCHEM_XLOGP3_AA>
3.3

> <PUBCHEM_EXACT_MASS>
181.089149355

> <PUBCHEM_MOLECULAR_FORMULA>
C13H11N

> <PUBCHEM_MOLECULAR_WEIGHT>
181.23

> <PUBCHEM_SMILES>
CN1C2=CC=CC=C2C3=CC=CC=C31

> <PUBCHEM_CONNECTIVITY_SMILES>
CN1C2=CC=CC=C2C3=CC=CC=C31

> <PUBCHEM_CACTVS_TPSA>
4.9

> <PUBCHEM_MONOISOTOPIC_WEIGHT>
181.089149355

> <PUBCHEM_TOTAL_CHARGE>
0

> <PUBCHEM_HEAVY_ATOM_COUNT>
14

> <PUBCHEM_ATOM_DEF_STEREO_COUNT>
0

> <PUBCHEM_ATOM_UDEF_STEREO_COUNT>
0

> <PUBCHEM_BOND_DEF_STEREO_COUNT>
0

> <PUBCHEM_BOND_UDEF_STEREO_COUNT>
0

> <PUBCHEM_ISOTOPIC_ATOM_COUNT>
0

> <PUBCHEM_COMPONENT_COUNT>
1

> <PUBCHEM_CACTVS_TAUTO_COUNT>
-1

> <PUBCHEM_COORDINATE_TYPE>
1
5
255

> <PUBCHEM_BONDANNOTATIONS>
1  4  8
1  5  8
11  13  8
12  14  8
2  3  8
2  4  8
2  6  8
3  5  8
3  7  8
4  8  8
5  9  8
6  11  8
7  12  8
8  13  8
9  14  8

$$$$
