50903199
  -OEChem-01202613592D

 96104  0     1  0  0  0  0  0999 V2000
   10.6287   -4.2974    0.0000 O   0  0  0  0  0  0  0  0  0  0  0  0
    7.5699   -1.4668    0.0000 O   0  0  0  0  0  0  0  0  0  0  0  0
   10.0944    0.2722    0.0000 O   0  0  0  0  0  0  0  0  0  0  0  0
    7.0843   -1.3642    0.0000 O   0  0  0  0  0  0  0  0  0  0  0  0
   11.7258   -2.5627    0.0000 O   0  0  0  0  0  0  0  0  0  0  0  0
    8.2960    1.3546    0.0000 O   0  0  0  0  0  0  0  0  0  0  0  0
   13.0860   -3.6504    0.0000 O   0  0  0  0  0  0  0  0  0  0  0  0
   12.2776   -4.2390    0.0000 O   0  0  0  0  0  0  0  0  0  0  0  0
    8.8382   -1.8518    0.0000 O   0  0  0  0  0  0  0  0  0  0  0  0
    4.6912    0.3887    0.0000 O   0  0  0  0  0  0  0  0  0  0  0  0
   13.5774   -2.0881    0.0000 O   0  0  0  0  0  0  0  0  0  0  0  0
   11.6805   -0.2254    0.0000 O   0  0  0  0  0  0  0  0  0  0  0  0
    9.2644   -5.9537    0.0000 O   0  0  0  0  0  0  0  0  0  0  0  0
    6.5492   -2.8168    0.0000 O   0  0  0  0  0  0  0  0  0  0  0  0
    7.1712   -5.5708    0.0000 O   0  0  0  0  0  0  0  0  0  0  0  0
    8.9032    2.8206    0.0000 O   0  0  0  0  0  0  0  0  0  0  0  0
    7.8263   -3.2575    0.0000 O   0  0  0  0  0  0  0  0  0  0  0  0
    3.4323    1.3546    0.0000 O   0  0  0  0  0  0  0  0  0  0  0  0
    5.1680    4.7004    0.0000 O   0  0  0  0  0  0  0  0  0  0  0  0
    5.7272    4.8503    0.0000 O   0  0  0  0  0  0  0  0  0  0  0  0
    8.5259    5.4653    0.0000 O   0  0  0  0  0  0  0  0  0  0  0  0
    6.5474    5.9955    0.0000 O   0  0  0  0  0  0  0  0  0  0  0  0
    3.8851    5.2821    0.0000 O   0  0  0  0  0  0  0  0  0  0  0  0
    2.4367    3.8337    0.0000 O   0  0  0  0  0  0  0  0  0  0  0  0
    4.4797   -1.9156    0.0000 O   0  0  0  0  0  0  0  0  0  0  0  0
    5.9027   -5.0739    0.0000 O   0  0  0  0  0  0  0  0  0  0  0  0
    4.2794   -3.9055    0.0000 O   0  0  0  0  0  0  0  0  0  0  0  0
   10.3157   -2.5968    0.0000 C   0  0  3  0  0  0  0  0  0  0  0  0
   11.0888   -3.3336    0.0000 C   0  0  3  0  0  0  0  0  0  0  0  0
    9.3718   -3.1100    0.0000 C   0  0  0  0  0  0  0  0  0  0  0  0
   12.1720   -3.2446    0.0000 C   0  0  0  0  0  0  0  0  0  0  0  0
    7.3301   -0.3184    0.0000 C   0  0  1  0  0  0  0  0  0  0  0  0
    8.0372    0.3887    0.0000 C   0  0  1  0  0  0  0  0  0  0  0  0
    9.0830    0.6345    0.0000 C   0  0  2  0  0  0  0  0  0  0  0  0
   10.8288   -1.6530    0.0000 C   0  0  0  0  0  0  0  0  0  0  0  0
    6.3642   -0.5772    0.0000 C   0  0  1  0  0  0  0  0  0  0  0  0
    9.5697   -4.1594    0.0000 C   0  0  0  0  0  0  0  0  0  0  0  0
    8.9385   -0.8568    0.0000 C   0  0  1  0  0  0  0  0  0  0  0  0
    8.3006   -3.0274    0.0000 C   0  0  0  0  0  0  0  0  0  0  0  0
   12.5892   -2.2410    0.0000 C   0  0  0  0  0  0  0  0  0  0  0  0
   11.8882   -1.4104    0.0000 C   0  0  0  0  0  0  0  0  0  0  0  0
   10.7462   -0.5818    0.0000 C   0  0  0  0  0  0  0  0  0  0  0  0
    5.3982   -0.3184    0.0000 C   0  0  0  0  0  0  0  0  0  0  0  0
    8.9060   -5.0201    0.0000 C   0  0  0  0  0  0  0  0  0  0  0  0
    7.4466   -2.3756    0.0000 C   0  0  0  0  0  0  0  0  0  0  0  0
    7.5210   -3.7846    0.0000 C   0  0  0  0  0  0  0  0  0  0  0  0
    7.8369   -4.8245    0.0000 C   0  0  0  0  0  0  0  0  0  0  0  0
    8.0372    2.3206    0.0000 C   0  0  0  0  0  0  0  0  0  0  0  0
    7.9264   -2.2624    0.0000 C   0  0  0  0  0  0  0  0  0  0  0  0
    7.3301    3.0277    0.0000 C   0  0  0  0  0  0  0  0  0  0  0  0
    4.4323    1.3546    0.0000 C   0  0  0  0  0  0  0  0  0  0  0  0
    6.3642    3.2865    0.0000 C   0  0  0  0  0  0  0  0  0  0  0  0
    4.6912    2.3206    0.0000 C   0  0  0  0  0  0  0  0  0  0  0  0
    5.3982    3.0277    0.0000 C   0  0  0  0  0  0  0  0  0  0  0  0
    7.0147   -2.6732    0.0000 C   0  0  0  0  0  0  0  0  0  0  0  0
    8.0779    3.7528    0.0000 C   0  0  0  0  0  0  0  0  0  0  0  0
    6.0791    4.2883    0.0000 C   0  0  0  0  0  0  0  0  0  0  0  0
    5.1442    4.0378    0.0000 C   0  0  0  0  0  0  0  0  0  0  0  0
    3.6810    2.5746    0.0000 C   0  0  0  0  0  0  0  0  0  0  0  0
    7.8161    4.7609    0.0000 C   0  0  0  0  0  0  0  0  0  0  0  0
    6.8100    5.0305    0.0000 C   0  0  0  0  0  0  0  0  0  0  0  0
    6.9146   -3.6682    0.0000 C   0  0  0  0  0  0  0  0  0  0  0  0
    6.2030   -2.0891    0.0000 C   0  0  0  0  0  0  0  0  0  0  0  0
    4.1402    4.3152    0.0000 C   0  0  0  0  0  0  0  0  0  0  0  0
    3.4036    3.5786    0.0000 C   0  0  0  0  0  0  0  0  0  0  0  0
    5.2913   -2.4998    0.0000 C   0  0  0  0  0  0  0  0  0  0  0  0
    6.0028   -4.0790    0.0000 C   0  0  0  0  0  0  0  0  0  0  0  0
    5.1912   -3.4948    0.0000 C   0  0  0  0  0  0  0  0  0  0  0  0
    9.8772   -2.1584    0.0000 H   0  0  0  0  0  0  0  0  0  0  0  0
    6.7291   -0.9194    0.0000 H   0  0  0  0  0  0  0  0  0  0  0  0
    8.6382    0.9897    0.0000 H   0  0  0  0  0  0  0  0  0  0  0  0
    9.6424    1.2746    0.0000 H   0  0  0  0  0  0  0  0  0  0  0  0
    5.9954   -1.3431    0.0000 H   0  0  0  0  0  0  0  0  0  0  0  0
    9.5554   -0.9190    0.0000 H   0  0  0  0  0  0  0  0  0  0  0  0
   12.0846   -0.8224    0.0000 H   0  0  0  0  0  0  0  0  0  0  0  0
    4.8363   -0.5804    0.0000 H   0  0  0  0  0  0  0  0  0  0  0  0
    5.7082    0.2185    0.0000 H   0  0  0  0  0  0  0  0  0  0  0  0
   11.5094   -1.9817    0.0000 H   0  0  0  0  0  0  0  0  0  0  0  0
    6.9207   -3.6297    0.0000 H   0  0  0  0  0  0  0  0  0  0  0  0
   13.5872   -3.2854    0.0000 H   0  0  0  0  0  0  0  0  0  0  0  0
   12.8443   -4.4906    0.0000 H   0  0  0  0  0  0  0  0  0  0  0  0
    8.8742   -6.4356    0.0000 H   0  0  0  0  0  0  0  0  0  0  0  0
    7.3655   -6.1595    0.0000 H   0  0  0  0  0  0  0  0  0  0  0  0
    8.6749    3.5854    0.0000 H   0  0  0  0  0  0  0  0  0  0  0  0
    3.2477    2.1312    0.0000 H   0  0  0  0  0  0  0  0  0  0  0  0
    7.4178   -4.0304    0.0000 H   0  0  0  0  0  0  0  0  0  0  0  0
    6.2651   -1.4722    0.0000 H   0  0  0  0  0  0  0  0  0  0  0  0
    4.8995    5.2593    0.0000 H   0  0  0  0  0  0  0  0  0  0  0  0
    5.6803    5.4685    0.0000 H   0  0  0  0  0  0  0  0  0  0  0  0
    9.1242    5.3025    0.0000 H   0  0  0  0  0  0  0  0  0  0  0  0
    6.9841    6.4356    0.0000 H   0  0  0  0  0  0  0  0  0  0  0  0
    3.2868    5.4449    0.0000 H   0  0  0  0  0  0  0  0  0  0  0  0
    2.0000    3.3936    0.0000 H   0  0  0  0  0  0  0  0  0  0  0  0
    4.5417   -1.2987    0.0000 H   0  0  0  0  0  0  0  0  0  0  0  0
    5.3374   -5.3286    0.0000 H   0  0  0  0  0  0  0  0  0  0  0  0
    4.2174   -4.5224    0.0000 H   0  0  0  0  0  0  0  0  0  0  0  0
  1 29  1  0  0  0  0
  1 37  1  0  0  0  0
  2 36  1  0  0  0  0
  2 38  1  0  0  0  0
  3 34  1  0  0  0  0
  3 42  1  0  0  0  0
  4 32  1  0  0  0  0
  4 45  1  0  0  0  0
  5 29  1  0  0  0  0
  5 78  1  0  0  0  0
  6 33  1  0  0  0  0
  6 48  1  0  0  0  0
  7 31  1  0  0  0  0
  7 80  1  0  0  0  0
  8 31  1  0  0  0  0
  8 81  1  0  0  0  0
 38  9  1  6  0  0  0
  9 49  1  0  0  0  0
 10 43  1  0  0  0  0
 10 51  1  0  0  0  0
 11 40  2  0  0  0  0
 12 42  2  0  0  0  0
 13 44  1  0  0  0  0
 13 82  1  0  0  0  0
 14 45  2  0  0  0  0
 15 47  1  0  0  0  0
 15 83  1  0  0  0  0
 16 48  2  0  0  0  0
 17 49  2  0  0  0  0
 18 51  2  0  0  0  0
 19 57  1  0  0  0  0
 19 88  1  0  0  0  0
 20 58  1  0  0  0  0
 20 89  1  0  0  0  0
 21 60  1  0  0  0  0
 21 90  1  0  0  0  0
 22 61  1  0  0  0  0
 22 91  1  0  0  0  0
 23 64  1  0  0  0  0
 23 92  1  0  0  0  0
 24 65  1  0  0  0  0
 24 93  1  0  0  0  0
 25 66  1  0  0  0  0
 25 94  1  0  0  0  0
 26 67  1  0  0  0  0
 26 95  1  0  0  0  0
 27 68  1  0  0  0  0
 27 96  1  0  0  0  0
 28 29  1  0  0  0  0
 28 30  1  0  0  0  0
 28 35  1  0  0  0  0
 28 69  1  0  0  0  0
 29 31  1  0  0  0  0
 30 37  2  0  0  0  0
 30 39  1  0  0  0  0
 31 40  1  0  0  0  0
 32 33  1  0  0  0  0
 32 36  1  0  0  0  0
 32 70  1  1  0  0  0
 33 34  1  0  0  0  0
 33 71  1  1  0  0  0
 34 38  1  0  0  0  0
 34 72  1  6  0  0  0
 35 41  2  0  0  0  0
 35 42  1  0  0  0  0
 36 43  1  0  0  0  0
 36 73  1  1  0  0  0
 37 44  1  0  0  0  0
 38 74  1  0  0  0  0
 39 45  1  0  0  0  0
 39 46  2  0  0  0  0
 40 41  1  0  0  0  0
 41 75  1  0  0  0  0
 43 76  1  0  0  0  0
 43 77  1  0  0  0  0
 44 47  2  0  0  0  0
 46 47  1  0  0  0  0
 46 79  1  0  0  0  0
 48 50  1  0  0  0  0
 49 55  1  0  0  0  0
 50 52  1  0  0  0  0
 50 56  2  0  0  0  0
 51 53  1  0  0  0  0
 52 54  1  0  0  0  0
 52 57  2  0  0  0  0
 53 54  1  0  0  0  0
 53 59  2  0  0  0  0
 54 58  2  0  0  0  0
 55 62  2  0  0  0  0
 55 63  1  0  0  0  0
 56 60  1  0  0  0  0
 56 84  1  0  0  0  0
 57 61  1  0  0  0  0
 58 64  1  0  0  0  0
 59 65  1  0  0  0  0
 59 85  1  0  0  0  0
 60 61  2  0  0  0  0
 62 67  1  0  0  0  0
 62 86  1  0  0  0  0
 63 66  2  0  0  0  0
 63 87  1  0  0  0  0
 64 65  2  0  0  0  0
 66 68  1  0  0  0  0
 67 68  2  0  0  0  0
M  END
> <PUBCHEM_COMPOUND_CID>
50903199

> <PUBCHEM_COMPOUND_CANONICALIZED>
1

> <PUBCHEM_CACTVS_COMPLEXITY>
2080

> <PUBCHEM_CACTVS_HBOND_ACCEPTOR>
27

> <PUBCHEM_CACTVS_HBOND_DONOR>
14

> <PUBCHEM_CACTVS_ROTATABLE_BOND>
3

> <PUBCHEM_CACTVS_SUBSKEYS>
AAADceB8PgAAAAAAAAAAAAAAAAAAASAAAAA0YMGCAAAAAEgBVAAAGgAACAAADRSwmAMwDoAABgCIAqDSCAICCAAkIAAAiAFGiMgdJzaGNRqieSOl4BUPuYfK7PzOoAABCAAYQABAAAIQADCAAAAAAAAAAA==

> <PUBCHEM_IUPAC_OPENEYE_NAME>
[(8R,9S,27R,29S,30R)-2,3,14,15,16,19,20,21,36,36,37-undecahydroxy-6,11,24,32,35-pentaoxo-7,10,25,28,31,40-hexaoxaoctacyclo[35.2.1.05,39.08,27.09,30.012,17.018,23.033,38]tetraconta-1(39),2,4,12,14,16,18,20,22,33-decaen-29-yl] 3,4,5-trihydroxybenzoate

> <PUBCHEM_IUPAC_CAS_NAME>
3,4,5-trihydroxybenzoic acid [(8R,9S,27R,29S,30R)-2,3,14,15,16,19,20,21,36,36,37-undecahydroxy-6,11,24,32,35-pentaoxo-7,10,25,28,31,40-hexaoxaoctacyclo[35.2.1.05,39.08,27.09,30.012,17.018,23.033,38]tetraconta-1(39),2,4,12,14,16,18,20,22,33-decaen-29-yl] ester

> <PUBCHEM_IUPAC_NAME_MARKUP>
[(8<I>R</I>,9<I>S</I>,27<I>R</I>,29<I>S</I>,30<I>R</I>)-2,3,14,15,16,19,20,21,36,36,37-undecahydroxy-6,11,24,32,35-pentaoxo-7,10,25,28,31,40-hexaoxaoctacyclo[35.2.1.0<SUP>5,39</SUP>.0<SUP>8,27</SUP>.0<SUP>9,30</SUP>.0<SUP>12,17</SUP>.0<SUP>18,23</SUP>.0<SUP>33,38</SUP>]tetraconta-1(39),2,4,12,14,16,18,20,22,33-decaen-29-yl] 3,4,5-trihydroxybenzoate

> <PUBCHEM_IUPAC_NAME>
[(8R,9S,27R,29S,30R)-2,3,14,15,16,19,20,21,36,36,37-undecahydroxy-6,11,24,32,35-pentaoxo-7,10,25,28,31,40-hexaoxaoctacyclo[35.2.1.05,39.08,27.09,30.012,17.018,23.033,38]tetraconta-1(39),2,4,12,14,16,18,20,22,33-decaen-29-yl] 3,4,5-trihydroxybenzoate

> <PUBCHEM_IUPAC_SYSTEMATIC_NAME>
[(8R,9S,27R,29S,30R)-2,3,14,15,16,19,20,21,36,36,37-undecakis(oxidanyl)-6,11,24,32,35-pentakis(oxidanylidene)-7,10,25,28,31,40-hexaoxaoctacyclo[35.2.1.05,39.08,27.09,30.012,17.018,23.033,38]tetraconta-1(39),2,4,12,14,16,18,20,22,33-decaen-29-yl] 3,4,5-tris(oxidanyl)benzoate

> <PUBCHEM_IUPAC_TRADITIONAL_NAME>
3,4,5-trihydroxybenzoic acid [(8R,9S,27R,29S,30R)-2,3,14,15,16,19,20,21,36,36,37-undecahydroxy-6,11,24,32,35-pentaketo-7,10,25,28,31,40-hexaoxaoctacyclo[35.2.1.05,39.08,27.09,30.012,17.018,23.033,38]tetraconta-1(39),2,4,12,14,16,18,20,22,33-decaen-29-yl] ester

> <PUBCHEM_IUPAC_INCHI>
InChI=1S/C41H28O27/c42-13-1-8(2-14(43)24(13)48)34(54)67-39-33-32-30(64-37(57)11-5-17(46)27(51)31-22(11)23-12(38(58)66-33)6-19(47)40(59,60)41(23,61)68-31)18(63-39)7-62-35(55)9-3-15(44)25(49)28(52)20(9)21-10(36(56)65-32)4-16(45)26(50)29(21)53/h1-6,18,23,30,32-33,39,42-46,48-53,59-61H,7H2/t18-,23?,30-,32+,33-,39+,41?/m1/s1

> <PUBCHEM_IUPAC_INCHIKEY>
FFNTWLBZRJZJEJ-PYGBXMOSSA-N

> <PUBCHEM_XLOGP3_AA>
-0.6

> <PUBCHEM_EXACT_MASS>
952.08179561

> <PUBCHEM_MOLECULAR_FORMULA>
C41H28O27

> <PUBCHEM_MOLECULAR_WEIGHT>
952.6

> <PUBCHEM_SMILES>
C1[C@@H]2[C@@H]3[C@@H]([C@H]([C@@H](O2)OC(=O)C4=CC(=C(C(=C4)O)O)O)OC(=O)C5=CC(=O)C(C6(C5C7=C(O6)C(=C(C=C7C(=O)O3)O)O)O)(O)O)OC(=O)C8=CC(=C(C(=C8C9=C(C(=C(C=C9C(=O)O1)O)O)O)O)O)O

> <PUBCHEM_CONNECTIVITY_SMILES>
C1C2C3C(C(C(O2)OC(=O)C4=CC(=C(C(=C4)O)O)O)OC(=O)C5=CC(=O)C(C6(C5C7=C(O6)C(=C(C=C7C(=O)O3)O)O)O)(O)O)OC(=O)C8=CC(=C(C(=C8C9=C(C(=C(C=C9C(=O)O1)O)O)O)O)O)O

> <PUBCHEM_CACTVS_TPSA>
450

> <PUBCHEM_MONOISOTOPIC_WEIGHT>
952.08179561

> <PUBCHEM_TOTAL_CHARGE>
0

> <PUBCHEM_HEAVY_ATOM_COUNT>
68

> <PUBCHEM_ATOM_DEF_STEREO_COUNT>
5

> <PUBCHEM_ATOM_UDEF_STEREO_COUNT>
2

> <PUBCHEM_BOND_DEF_STEREO_COUNT>
0

> <PUBCHEM_BOND_UDEF_STEREO_COUNT>
0

> <PUBCHEM_ISOTOPIC_ATOM_COUNT>
0

> <PUBCHEM_COMPONENT_COUNT>
1

> <PUBCHEM_CACTVS_TAUTO_COUNT>
-1

> <PUBCHEM_COORDINATE_TYPE>
1
5
255

> <PUBCHEM_BONDANNOTATIONS>
28  30  3
30  37  8
30  39  8
32  70  5
33  71  5
34  72  6
36  73  5
37  44  8
39  46  8
44  47  8
46  47  8
29  5  3
50  52  8
50  56  8
52  57  8
53  54  8
53  59  8
54  58  8
55  62  8
55  63  8
56  60  8
57  61  8
58  64  8
59  65  8
60  61  8
62  67  8
63  66  8
64  65  8
66  68  8
67  68  8
38  9  6

$$$$
