14610543
  -OEChem-01202613582D

 78 78  0     1  0  0  0  0  0999 V2000
    4.2690   -4.4050    0.0000 O   0  0  0  0  0  0  0  0  0  0  0  0
    6.0010   -4.4050    0.0000 O   0  0  0  0  0  0  0  0  0  0  0  0
    4.2690   -7.4050    0.0000 O   0  0  0  0  0  0  0  0  0  0  0  0
    6.0010   -6.4050    0.0000 O   0  0  0  0  0  0  0  0  0  0  0  0
    2.5369   -6.4050    0.0000 O   0  0  0  0  0  0  0  0  0  0  0  0
    2.5369   -3.4050    0.0000 O   0  0  0  0  0  0  0  0  0  0  0  0
    9.4651   -0.4050    0.0000 O   0  0  0  0  0  0  0  0  0  0  0  0
   11.1972    3.5950    0.0000 O   0  0  0  0  0  0  0  0  0  0  0  0
   12.0632    7.0950    0.0000 O   0  0  0  0  0  0  0  0  0  0  0  0
   10.3312    7.0950    0.0000 O   0  0  0  0  0  0  0  0  0  0  0  0
    4.2690   -6.4050    0.0000 C   0  0  3  0  0  0  0  0  0  0  0  0
    5.1350   -5.9050    0.0000 C   0  0  3  0  0  0  0  0  0  0  0  0
    3.4030   -5.9050    0.0000 C   0  0  3  0  0  0  0  0  0  0  0  0
    5.1350   -4.9050    0.0000 C   0  0  3  0  0  0  0  0  0  0  0  0
    3.4030   -4.9050    0.0000 C   0  0  3  0  0  0  0  0  0  0  0  0
    6.0010   -3.4050    0.0000 C   0  0  3  0  0  0  0  0  0  0  0  0
    2.5369   -4.4050    0.0000 C   0  0  0  0  0  0  0  0  0  0  0  0
    6.0010   -2.4050    0.0000 C   0  0  0  0  0  0  0  0  0  0  0  0
    5.0010   -3.4050    0.0000 C   0  0  0  0  0  0  0  0  0  0  0  0
    6.8671   -1.9050    0.0000 C   0  0  0  0  0  0  0  0  0  0  0  0
    7.0010   -3.4050    0.0000 C   0  0  0  0  0  0  0  0  0  0  0  0
    6.8671   -0.9050    0.0000 C   0  0  0  0  0  0  0  0  0  0  0  0
    7.7331   -0.4050    0.0000 C   0  0  0  0  0  0  0  0  0  0  0  0
    7.5010   -4.2710    0.0000 C   0  0  0  0  0  0  0  0  0  0  0  0
    7.7331    0.5950    0.0000 C   0  0  0  0  0  0  0  0  0  0  0  0
    8.5991    1.0950    0.0000 C   0  0  0  0  0  0  0  0  0  0  0  0
    8.5991   -0.9050    0.0000 C   0  0  0  0  0  0  0  0  0  0  0  0
    8.5991    2.0950    0.0000 C   0  0  0  0  0  0  0  0  0  0  0  0
    9.4651    2.5950    0.0000 C   0  0  0  0  0  0  0  0  0  0  0  0
    9.4651    3.5950    0.0000 C   0  0  0  0  0  0  0  0  0  0  0  0
   10.3312    4.0950    0.0000 C   0  0  3  0  0  0  0  0  0  0  0  0
   10.3312    2.0950    0.0000 C   0  0  0  0  0  0  0  0  0  0  0  0
   10.3312    5.0950    0.0000 C   0  0  0  0  0  0  0  0  0  0  0  0
   11.1972    5.5950    0.0000 C   0  0  0  0  0  0  0  0  0  0  0  0
   12.0632    5.0950    0.0000 C   0  0  0  0  0  0  0  0  0  0  0  0
   11.1972    6.5950    0.0000 C   0  0  0  0  0  0  0  0  0  0  0  0
    3.7320   -6.7150    0.0000 H   0  0  0  0  0  0  0  0  0  0  0  0
    5.1350   -6.5250    0.0000 H   0  0  0  0  0  0  0  0  0  0  0  0
    3.4030   -6.5250    0.0000 H   0  0  0  0  0  0  0  0  0  0  0  0
    5.1350   -4.2850    0.0000 H   0  0  0  0  0  0  0  0  0  0  0  0
    3.4030   -4.2850    0.0000 H   0  0  0  0  0  0  0  0  0  0  0  0
    1.9264   -4.2973    0.0000 H   0  0  0  0  0  0  0  0  0  0  0  0
    2.3249   -4.9876    0.0000 H   0  0  0  0  0  0  0  0  0  0  0  0
    5.7890   -1.8224    0.0000 H   0  0  0  0  0  0  0  0  0  0  0  0
    5.3905   -2.5127    0.0000 H   0  0  0  0  0  0  0  0  0  0  0  0
    5.0010   -2.7850    0.0000 H   0  0  0  0  0  0  0  0  0  0  0  0
    4.3810   -3.4050    0.0000 H   0  0  0  0  0  0  0  0  0  0  0  0
    5.0010   -4.0250    0.0000 H   0  0  0  0  0  0  0  0  0  0  0  0
    3.7320   -7.7150    0.0000 H   0  0  0  0  0  0  0  0  0  0  0  0
    6.0010   -7.0250    0.0000 H   0  0  0  0  0  0  0  0  0  0  0  0
    2.0000   -6.0950    0.0000 H   0  0  0  0  0  0  0  0  0  0  0  0
    7.0791   -2.4876    0.0000 H   0  0  0  0  0  0  0  0  0  0  0  0
    7.4776   -1.7973    0.0000 H   0  0  0  0  0  0  0  0  0  0  0  0
    7.3110   -2.8681    0.0000 H   0  0  0  0  0  0  0  0  0  0  0  0
    6.3301   -0.5950    0.0000 H   0  0  0  0  0  0  0  0  0  0  0  0
    2.0000   -3.0950    0.0000 H   0  0  0  0  0  0  0  0  0  0  0  0
    7.1910   -4.8080    0.0000 H   0  0  0  0  0  0  0  0  0  0  0  0
    8.1210   -4.2710    0.0000 H   0  0  0  0  0  0  0  0  0  0  0  0
    7.5210    1.1776    0.0000 H   0  0  0  0  0  0  0  0  0  0  0  0
    7.1225    0.4873    0.0000 H   0  0  0  0  0  0  0  0  0  0  0  0
    8.8112    0.5124    0.0000 H   0  0  0  0  0  0  0  0  0  0  0  0
    9.2097    1.2027    0.0000 H   0  0  0  0  0  0  0  0  0  0  0  0
    8.2006   -1.3800    0.0000 H   0  0  0  0  0  0  0  0  0  0  0  0
    8.9976   -1.3800    0.0000 H   0  0  0  0  0  0  0  0  0  0  0  0
    8.0622    2.4050    0.0000 H   0  0  0  0  0  0  0  0  0  0  0  0
    9.2531    4.1776    0.0000 H   0  0  0  0  0  0  0  0  0  0  0  0
    8.8546    3.4873    0.0000 H   0  0  0  0  0  0  0  0  0  0  0  0
   10.8681    4.4050    0.0000 H   0  0  0  0  0  0  0  0  0  0  0  0
   10.0021   -0.7150    0.0000 H   0  0  0  0  0  0  0  0  0  0  0  0
   10.0212    1.5581    0.0000 H   0  0  0  0  0  0  0  0  0  0  0  0
   10.8681    1.7850    0.0000 H   0  0  0  0  0  0  0  0  0  0  0  0
   10.6412    2.6319    0.0000 H   0  0  0  0  0  0  0  0  0  0  0  0
    9.7942    5.4050    0.0000 H   0  0  0  0  0  0  0  0  0  0  0  0
   11.7341    3.9050    0.0000 H   0  0  0  0  0  0  0  0  0  0  0  0
   11.7532    4.5581    0.0000 H   0  0  0  0  0  0  0  0  0  0  0  0
   12.6002    4.7850    0.0000 H   0  0  0  0  0  0  0  0  0  0  0  0
   12.3732    5.6319    0.0000 H   0  0  0  0  0  0  0  0  0  0  0  0
   12.0632    7.7150    0.0000 H   0  0  0  0  0  0  0  0  0  0  0  0
  1 14  1  0  0  0  0
  1 15  1  0  0  0  0
  2 14  1  0  0  0  0
  2 16  1  0  0  0  0
  3 11  1  0  0  0  0
  3 49  1  0  0  0  0
  4 12  1  0  0  0  0
  4 50  1  0  0  0  0
  5 13  1  0  0  0  0
  5 51  1  0  0  0  0
  6 17  1  0  0  0  0
  6 56  1  0  0  0  0
  7 27  1  0  0  0  0
  7 69  1  0  0  0  0
  8 31  1  0  0  0  0
  8 74  1  0  0  0  0
  9 36  1  0  0  0  0
  9 78  1  0  0  0  0
 10 36  2  0  0  0  0
 11 12  1  0  0  0  0
 11 13  1  0  0  0  0
 11 37  1  0  0  0  0
 12 14  1  0  0  0  0
 12 38  1  0  0  0  0
 13 15  1  0  0  0  0
 13 39  1  0  0  0  0
 14 40  1  0  0  0  0
 15 17  1  0  0  0  0
 15 41  1  0  0  0  0
 16 18  1  0  0  0  0
 16 19  1  0  0  0  0
 16 21  1  0  0  0  0
 17 42  1  0  0  0  0
 17 43  1  0  0  0  0
 18 20  1  0  0  0  0
 18 44  1  0  0  0  0
 18 45  1  0  0  0  0
 19 46  1  0  0  0  0
 19 47  1  0  0  0  0
 19 48  1  0  0  0  0
 20 22  1  0  0  0  0
 20 52  1  0  0  0  0
 20 53  1  0  0  0  0
 21 24  2  0  0  0  0
 21 54  1  0  0  0  0
 22 23  2  0  0  0  0
 22 55  1  0  0  0  0
 23 25  1  0  0  0  0
 23 27  1  0  0  0  0
 24 57  1  0  0  0  0
 24 58  1  0  0  0  0
 25 26  1  0  0  0  0
 25 59  1  0  0  0  0
 25 60  1  0  0  0  0
 26 28  1  0  0  0  0
 26 61  1  0  0  0  0
 26 62  1  0  0  0  0
 27 63  1  0  0  0  0
 27 64  1  0  0  0  0
 28 29  2  0  0  0  0
 28 65  1  0  0  0  0
 29 30  1  0  0  0  0
 29 32  1  0  0  0  0
 30 31  1  0  0  0  0
 30 66  1  0  0  0  0
 30 67  1  0  0  0  0
 31 33  1  0  0  0  0
 31 68  1  0  0  0  0
 32 70  1  0  0  0  0
 32 71  1  0  0  0  0
 32 72  1  0  0  0  0
 33 34  2  0  0  0  0
 33 73  1  0  0  0  0
 34 35  1  0  0  0  0
 34 36  1  0  0  0  0
 35 75  1  0  0  0  0
 35 76  1  0  0  0  0
 35 77  1  0  0  0  0
M  END
> <PUBCHEM_COMPOUND_CID>
14610543

> <PUBCHEM_COMPOUND_CANONICALIZED>
1

> <PUBCHEM_CACTVS_COMPLEXITY>
805

> <PUBCHEM_CACTVS_HBOND_ACCEPTOR>
10

> <PUBCHEM_CACTVS_HBOND_DONOR>
7

> <PUBCHEM_CACTVS_ROTATABLE_BOND>
15

> <PUBCHEM_CACTVS_SUBSKEYS>
AAADcfB4PAAAAAAAAAAAAAAAAAAAAAAAAAAkAAAAAAAAAAAAAAAAGgAACAAADFSwgAMCCAAABgCIAiDSCAAAAAAgAAAICAEAAEgRFAIAIQAiUAAFwAAPMYPAYAwMAAAAAAAAAAAAAAAAAAAAAAAAAAAAAA==

> <PUBCHEM_IUPAC_OPENEYE_NAME>
(2E,6E,10Z)-4-hydroxy-10-(hydroxymethyl)-2,6,14-trimethyl-14-[3,4,5-trihydroxy-6-(hydroxymethyl)tetrahydropyran-2-yl]oxy-hexadeca-2,6,10,15-tetraenoic acid

> <PUBCHEM_IUPAC_CAS_NAME>
(2E,6E,10Z)-4-hydroxy-10-(hydroxymethyl)-2,6,14-trimethyl-14-[[3,4,5-trihydroxy-6-(hydroxymethyl)-2-oxanyl]oxy]hexadeca-2,6,10,15-tetraenoic acid

> <PUBCHEM_IUPAC_NAME_MARKUP>
(2<I>E</I>,6<I>E</I>,10<I>Z</I>)-4-hydroxy-10-(hydroxymethyl)-2,6,14-trimethyl-14-[3,4,5-trihydroxy-6-(hydroxymethyl)oxan-2-yl]oxyhexadeca-2,6,10,15-tetraenoic acid

> <PUBCHEM_IUPAC_NAME>
(2E,6E,10Z)-4-hydroxy-10-(hydroxymethyl)-2,6,14-trimethyl-14-[3,4,5-trihydroxy-6-(hydroxymethyl)oxan-2-yl]oxyhexadeca-2,6,10,15-tetraenoic acid

> <PUBCHEM_IUPAC_SYSTEMATIC_NAME>
(2E,6E,10Z)-10-(hydroxymethyl)-14-[6-(hydroxymethyl)-3,4,5-tris(oxidanyl)oxan-2-yl]oxy-2,6,14-trimethyl-4-oxidanyl-hexadeca-2,6,10,15-tetraenoic acid

> <PUBCHEM_IUPAC_TRADITIONAL_NAME>
(2E,6E,10Z)-4-hydroxy-2,6,14-trimethyl-10-methylol-14-(3,4,5-trihydroxy-6-methylol-tetrahydropyran-2-yl)oxy-hexadeca-2,6,10,15-tetraenoic acid

> <PUBCHEM_IUPAC_INCHI>
InChI=1S/C26H42O10/c1-5-26(4,36-25-23(32)22(31)21(30)20(15-28)35-25)11-7-10-18(14-27)9-6-8-16(2)12-19(29)13-17(3)24(33)34/h5,8,10,13,19-23,25,27-32H,1,6-7,9,11-12,14-15H2,2-4H3,(H,33,34)/b16-8+,17-13+,18-10-

> <PUBCHEM_IUPAC_INCHIKEY>
XQQKZIVFXGPJHN-KMRBWUSPSA-N

> <PUBCHEM_XLOGP3_AA>
1.2

> <PUBCHEM_EXACT_MASS>
514.27779753

> <PUBCHEM_MOLECULAR_FORMULA>
C26H42O10

> <PUBCHEM_MOLECULAR_WEIGHT>
514.6

> <PUBCHEM_SMILES>
C/C(=C\CC/C(=C/CCC(C)(C=C)OC1C(C(C(C(O1)CO)O)O)O)/CO)/CC(/C=C(\C)/C(=O)O)O

> <PUBCHEM_CONNECTIVITY_SMILES>
CC(=CCCC(=CCCC(C)(C=C)OC1C(C(C(C(O1)CO)O)O)O)CO)CC(C=C(C)C(=O)O)O

> <PUBCHEM_CACTVS_TPSA>
177

> <PUBCHEM_MONOISOTOPIC_WEIGHT>
514.27779753

> <PUBCHEM_TOTAL_CHARGE>
0

> <PUBCHEM_HEAVY_ATOM_COUNT>
36

> <PUBCHEM_ATOM_DEF_STEREO_COUNT>
0

> <PUBCHEM_ATOM_UDEF_STEREO_COUNT>
7

> <PUBCHEM_BOND_DEF_STEREO_COUNT>
3

> <PUBCHEM_BOND_UDEF_STEREO_COUNT>
0

> <PUBCHEM_ISOTOPIC_ATOM_COUNT>
0

> <PUBCHEM_COMPONENT_COUNT>
1

> <PUBCHEM_CACTVS_TAUTO_COUNT>
-1

> <PUBCHEM_COORDINATE_TYPE>
1
5
255

> <PUBCHEM_BONDANNOTATIONS>
15  17  3
16  19  3
14  2  3
11  3  3
12  4  3
13  5  3
31  8  3

$$$$
