71308174
  -OEChem-01202622392D

 37 38  0     1  0  0  0  0  0999 V2000
    6.9343   -1.8100    0.0000 O   0  0  0  0  0  0  0  0  0  0  0  0
    3.6744    0.4981    0.0000 O   0  0  0  0  0  0  0  0  0  0  0  0
    5.2022    2.1900    0.0000 O   0  0  0  0  0  0  0  0  0  0  0  0
    8.6663   -0.8100    0.0000 O   0  0  0  0  0  0  0  0  0  0  0  0
    4.2174    1.3637    0.0000 O   0  0  0  0  0  0  0  0  0  0  0  0
    6.0683   -3.3100    0.0000 O   0  0  0  0  0  0  0  0  0  0  0  0
    7.8003    0.6900    0.0000 O   0  0  0  0  0  0  0  0  0  0  0  0
    2.5381   -0.2859    0.0000 O   0  0  0  0  0  0  0  0  0  0  0  0
    2.5381   -2.3342    0.0000 O   0  0  0  0  0  0  0  0  0  0  0  0
    7.8003    2.6900    0.0000 O   0  0  0  0  0  0  0  0  0  0  0  0
    6.0683    2.6900    0.0000 O   0  0  0  0  0  0  0  0  0  0  0  0
    6.0683   -0.3100    0.0000 C   0  0  2  0  0  0  0  0  0  0  0  0
    6.0683    0.6900    0.0000 C   0  0  2  0  0  0  0  0  0  0  0  0
    6.9343   -0.8100    0.0000 C   0  0  1  0  0  0  0  0  0  0  0  0
    5.2022   -0.8100    0.0000 C   0  0  0  0  0  0  0  0  0  0  0  0
    6.9343    1.1900    0.0000 C   0  0  0  0  0  0  0  0  0  0  0  0
    5.2022   -1.8100    0.0000 C   0  0  0  0  0  0  0  0  0  0  0  0
    4.3083   -0.2753    0.0000 C   0  0  0  0  0  0  0  0  0  0  0  0
    5.2022    1.1900    0.0000 C   0  0  0  0  0  0  0  0  0  0  0  0
    6.0683   -2.3100    0.0000 C   0  0  0  0  0  0  0  0  0  0  0  0
    7.8003   -0.3100    0.0000 C   0  0  0  0  0  0  0  0  0  0  0  0
    4.3083   -2.3447    0.0000 C   0  0  0  0  0  0  0  0  0  0  0  0
    3.4022   -0.7892    0.0000 C   0  0  0  0  0  0  0  0  0  0  0  0
    3.4022   -1.8308    0.0000 C   0  0  0  0  0  0  0  0  0  0  0  0
    6.9343    2.1900    0.0000 C   0  0  0  0  0  0  0  0  0  0  0  0
    5.3321    0.1150    0.0000 H   0  0  0  0  0  0  0  0  0  0  0  0
    6.6052    0.3800    0.0000 H   0  0  0  0  0  0  0  0  0  0  0  0
    7.4712   -1.1200    0.0000 H   0  0  0  0  0  0  0  0  0  0  0  0
    7.1463    0.6074    0.0000 H   0  0  0  0  0  0  0  0  0  0  0  0
    7.5449    1.2977    0.0000 H   0  0  0  0  0  0  0  0  0  0  0  0
    4.3155   -2.9646    0.0000 H   0  0  0  0  0  0  0  0  0  0  0  0
    3.0626    0.3975    0.0000 H   0  0  0  0  0  0  0  0  0  0  0  0
    4.6653    2.5000    0.0000 H   0  0  0  0  0  0  0  0  0  0  0  0
    9.2033   -0.5000    0.0000 H   0  0  0  0  0  0  0  0  0  0  0  0
    2.0000   -0.5938    0.0000 H   0  0  0  0  0  0  0  0  0  0  0  0
    2.5405   -2.9542    0.0000 H   0  0  0  0  0  0  0  0  0  0  0  0
    7.8003    3.3100    0.0000 H   0  0  0  0  0  0  0  0  0  0  0  0
  1 14  1  0  0  0  0
  1 20  1  0  0  0  0
  2 18  1  0  0  0  0
  2 32  1  0  0  0  0
  3 19  1  0  0  0  0
  3 33  1  0  0  0  0
  4 21  1  0  0  0  0
  4 34  1  0  0  0  0
  5 19  2  0  0  0  0
  6 20  2  0  0  0  0
  7 21  2  0  0  0  0
  8 23  1  0  0  0  0
  8 35  1  0  0  0  0
  9 24  1  0  0  0  0
  9 36  1  0  0  0  0
 10 25  1  0  0  0  0
 10 37  1  0  0  0  0
 11 25  2  0  0  0  0
 12 13  1  0  0  0  0
 12 14  1  0  0  0  0
 12 15  1  0  0  0  0
 12 26  1  1  0  0  0
 13 16  1  1  0  0  0
 13 19  1  0  0  0  0
 13 27  1  0  0  0  0
 14 21  1  1  0  0  0
 14 28  1  0  0  0  0
 15 17  1  0  0  0  0
 15 18  2  0  0  0  0
 16 25  1  0  0  0  0
 16 29  1  0  0  0  0
 16 30  1  0  0  0  0
 17 20  1  0  0  0  0
 17 22  2  0  0  0  0
 18 23  1  0  0  0  0
 22 24  1  0  0  0  0
 22 31  1  0  0  0  0
 23 24  2  0  0  0  0
M  END
> <PUBCHEM_COMPOUND_CID>
71308174

> <PUBCHEM_COMPOUND_CANONICALIZED>
1

> <PUBCHEM_CACTVS_COMPLEXITY>
587

> <PUBCHEM_CACTVS_HBOND_ACCEPTOR>
11

> <PUBCHEM_CACTVS_HBOND_DONOR>
6

> <PUBCHEM_CACTVS_ROTATABLE_BOND>
5

> <PUBCHEM_CACTVS_SUBSKEYS>
AAADccBwPAAAAAAAAAAAAAAAAAAAAAAAAAA0QAAAAAAAAACRAAAAGgAACAAADRSgmAIwDoAABgCIAiDSCAICAAAkIAAAiAFGiMgJJzKCNB6CcQElwBULuYfL7vzOoAABCAAYQABAAAIQADCAAAAAAAAAAA==

> <PUBCHEM_IUPAC_OPENEYE_NAME>
(2S)-2-[(3S,4S)-3-carboxy-5,6,7-trihydroxy-1-oxo-isochroman-4-yl]butanedioic acid

> <PUBCHEM_IUPAC_CAS_NAME>
(2S)-2-[(3S,4S)-3-carboxy-5,6,7-trihydroxy-1-oxo-3,4-dihydro-1H-2-benzopyran-4-yl]butanedioic acid

> <PUBCHEM_IUPAC_NAME_MARKUP>
(2<I>S</I>)-2-[(3<I>S</I>,4<I>S</I>)-3-carboxy-5,6,7-trihydroxy-1-oxo-3,4-dihydroisochromen-4-yl]butanedioic acid

> <PUBCHEM_IUPAC_NAME>
(2S)-2-[(3S,4S)-3-carboxy-5,6,7-trihydroxy-1-oxo-3,4-dihydroisochromen-4-yl]butanedioic acid

> <PUBCHEM_IUPAC_SYSTEMATIC_NAME>
(2S)-2-[(3S,4S)-3-carboxy-5,6,7-tris(oxidanyl)-1-oxidanylidene-3,4-dihydroisochromen-4-yl]butanedioic acid

> <PUBCHEM_IUPAC_TRADITIONAL_NAME>
(2S)-2-[(3S,4S)-3-carboxy-5,6,7-trihydroxy-1-keto-isochroman-4-yl]succinic acid

> <PUBCHEM_IUPAC_INCHI>
InChI=1S/C14H12O11/c15-5-1-4-7(10(19)9(5)18)8(3(12(20)21)2-6(16)17)11(13(22)23)25-14(4)24/h1,3,8,11,15,18-19H,2H2,(H,16,17)(H,20,21)(H,22,23)/t3-,8-,11-/m0/s1

> <PUBCHEM_IUPAC_INCHIKEY>
COZMWVAACFYLBI-XJEVXTIOSA-N

> <PUBCHEM_XLOGP3_AA>
-0.8

> <PUBCHEM_EXACT_MASS>
356.03796119

> <PUBCHEM_MOLECULAR_FORMULA>
C14H12O11

> <PUBCHEM_MOLECULAR_WEIGHT>
356.24

> <PUBCHEM_SMILES>
C1=C2C(=C(C(=C1O)O)O)[C@@H]([C@H](OC2=O)C(=O)O)[C@H](CC(=O)O)C(=O)O

> <PUBCHEM_CONNECTIVITY_SMILES>
C1=C2C(=C(C(=C1O)O)O)C(C(OC2=O)C(=O)O)C(CC(=O)O)C(=O)O

> <PUBCHEM_CACTVS_TPSA>
199

> <PUBCHEM_MONOISOTOPIC_WEIGHT>
356.03796119

> <PUBCHEM_TOTAL_CHARGE>
0

> <PUBCHEM_HEAVY_ATOM_COUNT>
25

> <PUBCHEM_ATOM_DEF_STEREO_COUNT>
3

> <PUBCHEM_ATOM_UDEF_STEREO_COUNT>
0

> <PUBCHEM_BOND_DEF_STEREO_COUNT>
0

> <PUBCHEM_BOND_UDEF_STEREO_COUNT>
0

> <PUBCHEM_ISOTOPIC_ATOM_COUNT>
0

> <PUBCHEM_COMPONENT_COUNT>
1

> <PUBCHEM_CACTVS_TAUTO_COUNT>
-1

> <PUBCHEM_COORDINATE_TYPE>
1
5
255

> <PUBCHEM_BONDANNOTATIONS>
12  26  5
13  16  5
14  21  5
15  17  8
15  18  8
17  22  8
18  23  8
22  24  8
23  24  8

$$$$
