466077
  -OEChem-01202622262D

 46 47  0     1  0  0  0  0  0999 V2000
    5.6350   -0.4260    0.0000 O   0  0  0  0  0  0  0  0  0  0  0  0
    3.6350    1.3060    0.0000 O   0  0  0  0  0  0  0  0  0  0  0  0
    2.5369   -1.0600    0.0000 O   0  0  0  0  0  0  0  0  0  0  0  0
    4.2690   -4.0600    0.0000 O   0  0  0  0  0  0  0  0  0  0  0  0
    9.4651    3.9400    0.0000 O   0  0  0  0  0  0  0  0  0  0  0  0
    5.1350    0.4400    0.0000 C   0  0  3  0  0  0  0  0  0  0  0  0
    4.2690   -0.0600    0.0000 C   0  0  0  0  0  0  0  0  0  0  0  0
    6.0010    0.9400    0.0000 C   0  0  0  0  0  0  0  0  0  0  0  0
    4.6350    1.3060    0.0000 C   0  0  0  0  0  0  0  0  0  0  0  0
    6.0010    1.9400    0.0000 C   0  0  0  0  0  0  0  0  0  0  0  0
    4.2690   -1.0600    0.0000 C   0  0  0  0  0  0  0  0  0  0  0  0
    6.8671    2.4400    0.0000 C   0  0  0  0  0  0  0  0  0  0  0  0
    3.4030   -1.5600    0.0000 C   0  0  0  0  0  0  0  0  0  0  0  0
    6.8671    0.4400    0.0000 C   0  0  0  0  0  0  0  0  0  0  0  0
    5.1350   -1.5600    0.0000 C   0  0  0  0  0  0  0  0  0  0  0  0
    3.4030   -2.5600    0.0000 C   0  0  0  0  0  0  0  0  0  0  0  0
    5.1350   -2.5600    0.0000 C   0  0  0  0  0  0  0  0  0  0  0  0
    6.8671    3.4400    0.0000 C   0  0  0  0  0  0  0  0  0  0  0  0
    7.7331    1.9400    0.0000 C   0  0  0  0  0  0  0  0  0  0  0  0
    4.2690   -3.0600    0.0000 C   0  0  0  0  0  0  0  0  0  0  0  0
    7.7331    3.9400    0.0000 C   0  0  0  0  0  0  0  0  0  0  0  0
    8.5991    2.4400    0.0000 C   0  0  0  0  0  0  0  0  0  0  0  0
    8.5991    3.4400    0.0000 C   0  0  0  0  0  0  0  0  0  0  0  0
    5.1350   -4.5600    0.0000 C   0  0  0  0  0  0  0  0  0  0  0  0
    4.0569    0.5226    0.0000 H   0  0  0  0  0  0  0  0  0  0  0  0
    3.6584   -0.1677    0.0000 H   0  0  0  0  0  0  0  0  0  0  0  0
    5.2176    1.5181    0.0000 H   0  0  0  0  0  0  0  0  0  0  0  0
    4.5274    1.9166    0.0000 H   0  0  0  0  0  0  0  0  0  0  0  0
    5.7890    2.5226    0.0000 H   0  0  0  0  0  0  0  0  0  0  0  0
    5.3905    1.8323    0.0000 H   0  0  0  0  0  0  0  0  0  0  0  0
    6.2550   -0.4260    0.0000 H   0  0  0  0  0  0  0  0  0  0  0  0
    6.8671   -0.1800    0.0000 H   0  0  0  0  0  0  0  0  0  0  0  0
    7.4040    0.7500    0.0000 H   0  0  0  0  0  0  0  0  0  0  0  0
    5.6720   -1.2500    0.0000 H   0  0  0  0  0  0  0  0  0  0  0  0
    3.3250    1.8430    0.0000 H   0  0  0  0  0  0  0  0  0  0  0  0
    2.8660   -2.8700    0.0000 H   0  0  0  0  0  0  0  0  0  0  0  0
    5.6720   -2.8700    0.0000 H   0  0  0  0  0  0  0  0  0  0  0  0
    6.3301    3.7500    0.0000 H   0  0  0  0  0  0  0  0  0  0  0  0
    7.7331    1.3200    0.0000 H   0  0  0  0  0  0  0  0  0  0  0  0
    7.7331    4.5600    0.0000 H   0  0  0  0  0  0  0  0  0  0  0  0
    9.1361    2.1300    0.0000 H   0  0  0  0  0  0  0  0  0  0  0  0
    2.0000   -1.3700    0.0000 H   0  0  0  0  0  0  0  0  0  0  0  0
    4.8250   -5.0969    0.0000 H   0  0  0  0  0  0  0  0  0  0  0  0
    5.6720   -4.8700    0.0000 H   0  0  0  0  0  0  0  0  0  0  0  0
    5.4450   -4.0231    0.0000 H   0  0  0  0  0  0  0  0  0  0  0  0
    9.4651    4.5600    0.0000 H   0  0  0  0  0  0  0  0  0  0  0  0
  1  6  1  0  0  0  0
  1 31  1  0  0  0  0
  2  9  1  0  0  0  0
  2 35  1  0  0  0  0
  3 13  1  0  0  0  0
  3 42  1  0  0  0  0
  4 20  1  0  0  0  0
  4 24  1  0  0  0  0
  5 23  1  0  0  0  0
  5 46  1  0  0  0  0
  6  7  1  0  0  0  0
  6  8  1  0  0  0  0
  6  9  1  0  0  0  0
  7 11  1  0  0  0  0
  7 25  1  0  0  0  0
  7 26  1  0  0  0  0
  8 10  1  0  0  0  0
  8 14  2  0  0  0  0
  9 27  1  0  0  0  0
  9 28  1  0  0  0  0
 10 12  1  0  0  0  0
 10 29  1  0  0  0  0
 10 30  1  0  0  0  0
 11 13  2  0  0  0  0
 11 15  1  0  0  0  0
 12 18  2  0  0  0  0
 12 19  1  0  0  0  0
 13 16  1  0  0  0  0
 14 32  1  0  0  0  0
 14 33  1  0  0  0  0
 15 17  2  0  0  0  0
 15 34  1  0  0  0  0
 16 20  2  0  0  0  0
 16 36  1  0  0  0  0
 17 20  1  0  0  0  0
 17 37  1  0  0  0  0
 18 21  1  0  0  0  0
 18 38  1  0  0  0  0
 19 22  2  0  0  0  0
 19 39  1  0  0  0  0
 21 23  2  0  0  0  0
 21 40  1  0  0  0  0
 22 23  1  0  0  0  0
 22 41  1  0  0  0  0
 24 43  1  0  0  0  0
 24 44  1  0  0  0  0
 24 45  1  0  0  0  0
M  END
> <PUBCHEM_COMPOUND_CID>
466077

> <PUBCHEM_COMPOUND_CANONICALIZED>
1

> <PUBCHEM_CACTVS_COMPLEXITY>
405

> <PUBCHEM_CACTVS_HBOND_ACCEPTOR>
5

> <PUBCHEM_CACTVS_HBOND_DONOR>
4

> <PUBCHEM_CACTVS_ROTATABLE_BOND>
7

> <PUBCHEM_CACTVS_SUBSKEYS>
AAADceB4OAAAAAAAAAAAAAAAAAAAAAAAAAAwYAAAAAAAAAABQAAAGgAACAAADESgmAIyBoAABgCAAiBCAAACCAAgIAAIiAAGCIgNNyKGMRqAcCAlwBUJuAfA4PwOIAAACAAIAABAAAAQABAAAAAAAAAAAA==

> <PUBCHEM_IUPAC_OPENEYE_NAME>
2-[(2-hydroxy-4-methoxy-phenyl)methyl]-3-[(4-hydroxyphenyl)methyl]but-3-ene-1,2-diol

> <PUBCHEM_IUPAC_CAS_NAME>
2-[(2-hydroxy-4-methoxyphenyl)methyl]-3-[(4-hydroxyphenyl)methyl]-3-butene-1,2-diol

> <PUBCHEM_IUPAC_NAME_MARKUP>
2-[(2-hydroxy-4-methoxyphenyl)methyl]-3-[(4-hydroxyphenyl)methyl]but-3-ene-1,2-diol

> <PUBCHEM_IUPAC_NAME>
2-[(2-hydroxy-4-methoxyphenyl)methyl]-3-[(4-hydroxyphenyl)methyl]but-3-ene-1,2-diol

> <PUBCHEM_IUPAC_SYSTEMATIC_NAME>
3-[(4-hydroxyphenyl)methyl]-2-[(4-methoxy-2-oxidanyl-phenyl)methyl]but-3-ene-1,2-diol

> <PUBCHEM_IUPAC_TRADITIONAL_NAME>
3-(4-hydroxybenzyl)-2-(2-hydroxy-4-methoxy-benzyl)but-3-ene-1,2-diol

> <PUBCHEM_IUPAC_INCHI>
InChI=1S/C19H22O5/c1-13(9-14-3-6-16(21)7-4-14)19(23,12-20)11-15-5-8-17(24-2)10-18(15)22/h3-8,10,20-23H,1,9,11-12H2,2H3

> <PUBCHEM_IUPAC_INCHIKEY>
UICXJFXGPMLFAQ-UHFFFAOYSA-N

> <PUBCHEM_XLOGP3_AA>
2.8

> <PUBCHEM_EXACT_MASS>
330.14672380

> <PUBCHEM_MOLECULAR_FORMULA>
C19H22O5

> <PUBCHEM_MOLECULAR_WEIGHT>
330.4

> <PUBCHEM_SMILES>
COC1=CC(=C(C=C1)CC(CO)(C(=C)CC2=CC=C(C=C2)O)O)O

> <PUBCHEM_CONNECTIVITY_SMILES>
COC1=CC(=C(C=C1)CC(CO)(C(=C)CC2=CC=C(C=C2)O)O)O

> <PUBCHEM_CACTVS_TPSA>
90.2

> <PUBCHEM_MONOISOTOPIC_WEIGHT>
330.14672380

> <PUBCHEM_TOTAL_CHARGE>
0

> <PUBCHEM_HEAVY_ATOM_COUNT>
24

> <PUBCHEM_ATOM_DEF_STEREO_COUNT>
0

> <PUBCHEM_ATOM_UDEF_STEREO_COUNT>
1

> <PUBCHEM_BOND_DEF_STEREO_COUNT>
0

> <PUBCHEM_BOND_UDEF_STEREO_COUNT>
0

> <PUBCHEM_ISOTOPIC_ATOM_COUNT>
0

> <PUBCHEM_COMPONENT_COUNT>
1

> <PUBCHEM_CACTVS_TAUTO_COUNT>
-1

> <PUBCHEM_COORDINATE_TYPE>
1
5
255

> <PUBCHEM_BONDANNOTATIONS>
6  1  3
11  13  8
11  15  8
12  18  8
12  19  8
13  16  8
15  17  8
16  20  8
17  20  8
18  21  8
19  22  8
21  23  8
22  23  8

$$$$
