131752596
  -OEChem-01202614012D

 80 87  0     1  0  0  0  0  0999 V2000
    8.2708    0.5027    0.0000 O   0  0  0  0  0  0  0  0  0  0  0  0
    3.6130    2.8439    0.0000 O   0  0  0  0  0  0  0  0  0  0  0  0
    6.4955   -0.1896    0.0000 O   0  0  0  0  0  0  0  0  0  0  0  0
    7.9827    2.3862    0.0000 O   0  0  0  0  0  0  0  0  0  0  0  0
    3.1824    2.4240    0.0000 O   0  0  0  0  0  0  0  0  0  0  0  0
    4.1336    3.2889    0.0000 O   0  0  0  0  0  0  0  0  0  0  0  0
    6.5426    1.5005    0.0000 O   0  0  0  0  0  0  0  0  0  0  0  0
    2.3582    1.8600    0.0000 O   0  0  0  0  0  0  0  0  0  0  0  0
    9.7405   -0.8923    0.0000 O   0  0  0  0  0  0  0  0  0  0  0  0
    2.5667    0.2506    0.0000 O   0  0  0  0  0  0  0  0  0  0  0  0
    5.0151   -0.6444    0.0000 O   0  0  0  0  0  0  0  0  0  0  0  0
    9.0680   -0.8908    0.0000 O   0  0  0  0  0  0  0  0  0  0  0  0
    3.8755    4.6688    0.0000 O   0  0  0  0  0  0  0  0  0  0  0  0
    7.6363    3.8957    0.0000 O   0  0  0  0  0  0  0  0  0  0  0  0
    5.6371    5.5687    0.0000 O   0  0  0  0  0  0  0  0  0  0  0  0
    8.6318   -2.5517    0.0000 O   0  0  0  0  0  0  0  0  0  0  0  0
    7.3712   -4.8832    0.0000 O   0  0  0  0  0  0  0  0  0  0  0  0
    4.8585   -2.3899    0.0000 O   0  0  0  0  0  0  0  0  0  0  0  0
    5.3887   -4.3684    0.0000 O   0  0  0  0  0  0  0  0  0  0  0  0
    8.3311   -5.1404    0.0000 O   0  0  0  0  0  0  0  0  0  0  0  0
   10.3054   -5.6858    0.0000 O   0  0  0  0  0  0  0  0  0  0  0  0
   11.7538   -4.2375    0.0000 O   0  0  0  0  0  0  0  0  0  0  0  0
    5.0315    1.8344    0.0000 C   0  0  3  0  0  0  0  0  0  0  0  0
    4.1733    2.2897    0.0000 C   0  0  0  0  0  0  0  0  0  0  0  0
    7.4086    0.0005    0.0000 C   0  0  3  0  0  0  0  0  0  0  0  0
    8.2746    1.5005    0.0000 C   0  0  3  0  0  0  0  0  0  0  0  0
    7.4086    1.0005    0.0000 C   0  0  3  0  0  0  0  0  0  0  0  0
    3.3540    1.7677    0.0000 C   0  0  3  0  0  0  0  0  0  0  0  0
    9.1406    1.0005    0.0000 C   0  0  3  0  0  0  0  0  0  0  0  0
    8.2746   -0.4995    0.0000 C   0  0  3  0  0  0  0  0  0  0  0  0
    5.4978    2.6421    0.0000 C   0  0  0  0  0  0  0  0  0  0  0  0
    5.0793    0.9030    0.0000 C   0  0  0  0  0  0  0  0  0  0  0  0
    4.6745    3.1577    0.0000 C   0  0  0  0  0  0  0  0  0  0  0  0
    3.4038    0.7976    0.0000 C   0  0  0  0  0  0  0  0  0  0  0  0
    6.3283    3.0664    0.0000 C   0  0  0  0  0  0  0  0  0  0  0  0
    4.2723    0.3623    0.0000 C   0  0  0  0  0  0  0  0  0  0  0  0
    9.1406    0.0005    0.0000 C   0  0  0  0  0  0  0  0  0  0  0  0
    5.6259    0.1474    0.0000 C   0  0  0  0  0  0  0  0  0  0  0  0
    8.2746   -1.4995    0.0000 C   0  0  0  0  0  0  0  0  0  0  0  0
    7.2561    2.9709    0.0000 C   0  0  0  0  0  0  0  0  0  0  0  0
    4.7168    4.1283    0.0000 C   0  0  0  0  0  0  0  0  0  0  0  0
    6.3931    4.0357    0.0000 C   0  0  0  0  0  0  0  0  0  0  0  0
    5.5819    4.5702    0.0000 C   0  0  0  0  0  0  0  0  0  0  0  0
    7.5675   -2.2066    0.0000 C   0  0  0  0  0  0  0  0  0  0  0  0
    7.8263   -3.1726    0.0000 C   0  0  0  0  0  0  0  0  0  0  0  0
    6.5657   -1.9216    0.0000 C   0  0  0  0  0  0  0  0  0  0  0  0
    8.7923   -3.4314    0.0000 C   0  0  0  0  0  0  0  0  0  0  0  0
    9.2405   -1.7584    0.0000 C   0  0  0  0  0  0  0  0  0  0  0  0
    9.4994   -2.7243    0.0000 C   0  0  0  0  0  0  0  0  0  0  0  0
    7.1012   -3.9204    0.0000 C   0  0  0  0  0  0  0  0  0  0  0  0
    5.8235   -2.6524    0.0000 C   0  0  0  0  0  0  0  0  0  0  0  0
    6.0930   -3.6586    0.0000 C   0  0  0  0  0  0  0  0  0  0  0  0
    9.0463   -4.4416    0.0000 C   0  0  0  0  0  0  0  0  0  0  0  0
   10.5095   -2.9783    0.0000 C   0  0  0  0  0  0  0  0  0  0  0  0
   10.0503   -4.7189    0.0000 C   0  0  0  0  0  0  0  0  0  0  0  0
   10.7869   -3.9824    0.0000 C   0  0  0  0  0  0  0  0  0  0  0  0
    5.6343    1.6894    0.0000 H   0  0  0  0  0  0  0  0  0  0  0  0
    7.3103   -0.6117    0.0000 H   0  0  0  0  0  0  0  0  0  0  0  0
    8.7556    1.8917    0.0000 H   0  0  0  0  0  0  0  0  0  0  0  0
    7.4086    1.6205    0.0000 H   0  0  0  0  0  0  0  0  0  0  0  0
    9.6776    1.3105    0.0000 H   0  0  0  0  0  0  0  0  0  0  0  0
    8.8946   -0.4983    0.0000 H   0  0  0  0  0  0  0  0  0  0  0  0
    4.3112   -0.2565    0.0000 H   0  0  0  0  0  0  0  0  0  0  0  0
    8.5534    0.1993    0.0000 H   0  0  0  0  0  0  0  0  0  0  0  0
    9.7337    0.1812    0.0000 H   0  0  0  0  0  0  0  0  0  0  0  0
    2.9473    2.9978    0.0000 H   0  0  0  0  0  0  0  0  0  0  0  0
    3.5847    3.5773    0.0000 H   0  0  0  0  0  0  0  0  0  0  0  0
    6.5426    2.1205    0.0000 H   0  0  0  0  0  0  0  0  0  0  0  0
    6.9485    4.3113    0.0000 H   0  0  0  0  0  0  0  0  0  0  0  0
    2.0000    1.3540    0.0000 H   0  0  0  0  0  0  0  0  0  0  0  0
    6.4121   -1.3209    0.0000 H   0  0  0  0  0  0  0  0  0  0  0  0
    3.9049    5.2881    0.0000 H   0  0  0  0  0  0  0  0  0  0  0  0
    6.1903    5.8486    0.0000 H   0  0  0  0  0  0  0  0  0  0  0  0
   10.9428   -2.5349    0.0000 H   0  0  0  0  0  0  0  0  0  0  0  0
    6.9379   -5.3267    0.0000 H   0  0  0  0  0  0  0  0  0  0  0  0
    4.4184   -2.8266    0.0000 H   0  0  0  0  0  0  0  0  0  0  0  0
    4.7892   -4.2102    0.0000 H   0  0  0  0  0  0  0  0  0  0  0  0
    8.4846   -5.7411    0.0000 H   0  0  0  0  0  0  0  0  0  0  0  0
   10.9037   -5.8486    0.0000 H   0  0  0  0  0  0  0  0  0  0  0  0
   12.1905   -3.7974    0.0000 H   0  0  0  0  0  0  0  0  0  0  0  0
  1 29  1  0  0  0  0
  1 30  1  0  0  0  0
  2 28  1  0  0  0  0
  2 33  1  0  0  0  0
  3 25  1  0  0  0  0
  3 38  1  0  0  0  0
  4 26  1  0  0  0  0
  4 40  1  0  0  0  0
  5 24  1  0  0  0  0
  5 66  1  0  0  0  0
  6 24  1  0  0  0  0
  6 67  1  0  0  0  0
  7 27  1  0  0  0  0
  7 68  1  0  0  0  0
  8 28  1  0  0  0  0
  8 70  1  0  0  0  0
  9 37  1  0  0  0  0
  9 48  1  0  0  0  0
 10 34  2  0  0  0  0
 11 38  2  0  0  0  0
 12 39  2  0  0  0  0
 13 41  1  0  0  0  0
 13 72  1  0  0  0  0
 14 40  2  0  0  0  0
 15 43  1  0  0  0  0
 15 73  1  0  0  0  0
 16 48  2  0  0  0  0
 17 50  1  0  0  0  0
 17 75  1  0  0  0  0
 18 51  1  0  0  0  0
 18 76  1  0  0  0  0
 19 52  1  0  0  0  0
 19 77  1  0  0  0  0
 20 53  1  0  0  0  0
 20 78  1  0  0  0  0
 21 55  1  0  0  0  0
 21 79  1  0  0  0  0
 22 56  1  0  0  0  0
 22 80  1  0  0  0  0
 23 24  1  0  0  0  0
 23 31  1  0  0  0  0
 23 32  1  0  0  0  0
 23 57  1  0  0  0  0
 24 28  1  0  0  0  0
 25 27  1  0  0  0  0
 25 30  1  0  0  0  0
 25 58  1  0  0  0  0
 26 27  1  0  0  0  0
 26 29  1  0  0  0  0
 26 59  1  0  0  0  0
 27 60  1  0  0  0  0
 28 34  1  0  0  0  0
 29 37  1  0  0  0  0
 29 61  1  0  0  0  0
 30 39  1  0  0  0  0
 30 62  1  0  0  0  0
 31 33  2  0  0  0  0
 31 35  1  0  0  0  0
 32 36  2  0  0  0  0
 32 38  1  0  0  0  0
 33 41  1  0  0  0  0
 34 36  1  0  0  0  0
 35 40  1  0  0  0  0
 35 42  2  0  0  0  0
 36 63  1  0  0  0  0
 37 64  1  0  0  0  0
 37 65  1  0  0  0  0
 39 44  1  0  0  0  0
 41 43  2  0  0  0  0
 42 43  1  0  0  0  0
 42 69  1  0  0  0  0
 44 45  1  0  0  0  0
 44 46  2  0  0  0  0
 45 47  1  0  0  0  0
 45 50  2  0  0  0  0
 46 51  1  0  0  0  0
 46 71  1  0  0  0  0
 47 49  1  0  0  0  0
 47 53  2  0  0  0  0
 48 49  1  0  0  0  0
 49 54  2  0  0  0  0
 50 52  1  0  0  0  0
 51 52  2  0  0  0  0
 53 55  1  0  0  0  0
 54 56  1  0  0  0  0
 54 74  1  0  0  0  0
 55 56  2  0  0  0  0
M  END
> <PUBCHEM_COMPOUND_CID>
131752596

> <PUBCHEM_COMPOUND_CANONICALIZED>
1

> <PUBCHEM_CACTVS_COMPLEXITY>
1720

> <PUBCHEM_CACTVS_HBOND_ACCEPTOR>
22

> <PUBCHEM_CACTVS_HBOND_DONOR>
12

> <PUBCHEM_CACTVS_ROTATABLE_BOND>
0

> <PUBCHEM_CACTVS_SUBSKEYS>
AAADceB8PgAAAAAAAAAAAAAAAAAAAAAAAAA0aMECAAAQAACRUAAAGgAACAAADRSgmAIwDoAABgCIAqDSCAICCAAkIAAAiAFGiMgdNzaGNR6CeSOl4BUPuYfK7PzOoAABCAAYQABAAAIQADCAAAAAAAAAAA==

> <PUBCHEM_IUPAC_OPENEYE_NAME>
6,7,8,11,12,13,25,26,30,30,31,37-dodecahydroxy-17,21,36,38,39-pentaoxaoctacyclo[18.16.1.12,19.127,31.04,9.010,15.023,28.029,34]nonatriaconta-4,6,8,10,12,14,23,25,27,33-decaene-3,16,22,32,35-pentone

> <PUBCHEM_IUPAC_CAS_NAME>
6,7,8,11,12,13,25,26,30,30,31,37-dodecahydroxy-17,21,36,38,39-pentaoxaoctacyclo[18.16.1.12,19.127,31.04,9.010,15.023,28.029,34]nonatriaconta-4,6,8,10,12,14,23,25,27,33-decaene-3,16,22,32,35-pentone

> <PUBCHEM_IUPAC_NAME_MARKUP>
6,7,8,11,12,13,25,26,30,30,31,37-dodecahydroxy-17,21,36,38,39-pentaoxaoctacyclo[18.16.1.1<SUP>2,19</SUP>.1<SUP>27,31</SUP>.0<SUP>4,9</SUP>.0<SUP>10,15</SUP>.0<SUP>23,28</SUP>.0<SUP>29,34</SUP>]nonatriaconta-4,6,8,10,12,14,23,25,27,33-decaene-3,16,22,32,35-pentone

> <PUBCHEM_IUPAC_NAME>
6,7,8,11,12,13,25,26,30,30,31,37-dodecahydroxy-17,21,36,38,39-pentaoxaoctacyclo[18.16.1.12,19.127,31.04,9.010,15.023,28.029,34]nonatriaconta-4,6,8,10,12,14,23,25,27,33-decaene-3,16,22,32,35-pentone

> <PUBCHEM_IUPAC_SYSTEMATIC_NAME>
6,7,8,11,12,13,25,26,30,30,31,37-dodecakis(oxidanyl)-17,21,36,38,39-pentaoxaoctacyclo[18.16.1.12,19.127,31.04,9.010,15.023,28.029,34]nonatriaconta-4,6,8,10,12,14,23,25,27,33-decaene-3,16,22,32,35-pentone

> <PUBCHEM_IUPAC_TRADITIONAL_NAME>
6,7,8,11,12,13,25,26,30,30,31,37-dodecahydroxy-17,21,36,38,39-pentaoxaoctacyclo[18.16.1.12,19.127,31.04,9.010,15.023,28.029,34]nonatriaconta-4,6,8,10,12,14,23,25,27,33-decaene-3,16,22,32,35-pentone

> <PUBCHEM_IUPAC_INCHI>
InChI=1S/C34H24O22/c35-10-1-6-15(23(43)20(10)40)16-7(2-11(36)21(41)24(16)44)30(46)52-5-13-26-25(45)29(28(53-13)19(6)39)55-32(48)9-4-14(38)34(51)33(49,50)18(9)17-8(31(47)54-26)3-12(37)22(42)27(17)56-34/h1-4,13,18,25-26,28-29,35-37,40-45,49-51H,5H2

> <PUBCHEM_IUPAC_INCHIKEY>
BEAQEKRAXFQCBO-UHFFFAOYSA-N

> <PUBCHEM_XLOGP3_AA>
-1.9

> <PUBCHEM_EXACT_MASS>
784.07592239

> <PUBCHEM_MOLECULAR_FORMULA>
C34H24O22

> <PUBCHEM_MOLECULAR_WEIGHT>
784.5

> <PUBCHEM_SMILES>
C1C2C3C(C(C(O2)C(=O)C4=CC(=C(C(=C4C5=C(C(=C(C=C5C(=O)O1)O)O)O)O)O)O)OC(=O)C6=CC(=O)C7(C(C6C8=C(O7)C(=C(C=C8C(=O)O3)O)O)(O)O)O)O

> <PUBCHEM_CONNECTIVITY_SMILES>
C1C2C3C(C(C(O2)C(=O)C4=CC(=C(C(=C4C5=C(C(=C(C=C5C(=O)O1)O)O)O)O)O)O)OC(=O)C6=CC(=O)C7(C(C6C8=C(O7)C(=C(C=C8C(=O)O3)O)O)(O)O)O)O

> <PUBCHEM_CACTVS_TPSA>
374

> <PUBCHEM_MONOISOTOPIC_WEIGHT>
784.07592239

> <PUBCHEM_TOTAL_CHARGE>
0

> <PUBCHEM_HEAVY_ATOM_COUNT>
56

> <PUBCHEM_ATOM_DEF_STEREO_COUNT>
0

> <PUBCHEM_ATOM_UDEF_STEREO_COUNT>
7

> <PUBCHEM_BOND_DEF_STEREO_COUNT>
0

> <PUBCHEM_BOND_UDEF_STEREO_COUNT>
0

> <PUBCHEM_ISOTOPIC_ATOM_COUNT>
0

> <PUBCHEM_COMPONENT_COUNT>
1

> <PUBCHEM_CACTVS_TAUTO_COUNT>
-1

> <PUBCHEM_COORDINATE_TYPE>
1
5
255

> <PUBCHEM_BONDANNOTATIONS>
23  24  3
29  37  3
25  3  3
30  39  3
31  33  8
31  35  8
33  41  8
35  42  8
26  4  3
41  43  8
42  43  8
44  45  8
44  46  8
45  50  8
46  51  8
47  49  8
47  53  8
49  54  8
50  52  8
51  52  8
53  55  8
54  56  8
55  56  8
27  7  3
28  8  3

$$$$
