16130897
  -OEChem-01202613582D

188203  0     1  0  0  0  0  0999 V2000
    5.9860    5.2622    0.0000 O   0  0  0  0  0  0  0  0  0  0  0  0
    8.8399   -4.0794    0.0000 O   0  0  0  0  0  0  0  0  0  0  0  0
    8.4266    3.2677    0.0000 O   0  0  0  0  0  0  0  0  0  0  0  0
    6.8681    2.7207    0.0000 O   0  0  0  0  0  0  0  0  0  0  0  0
   10.4721   -6.7758    0.0000 O   0  0  0  0  0  0  0  0  0  0  0  0
    8.8203   -6.7695    0.0000 O   0  0  0  0  0  0  0  0  0  0  0  0
    8.4494    6.2188    0.0000 O   0  0  0  0  0  0  0  0  0  0  0  0
   11.4814   -4.0026    0.0000 O   0  0  0  0  0  0  0  0  0  0  0  0
    6.8802    6.7899    0.0000 O   0  0  0  0  0  0  0  0  0  0  0  0
   10.1940   -2.9391    0.0000 O   0  0  0  0  0  0  0  0  0  0  0  0
    4.8772    2.7547    0.0000 O   0  0  0  0  0  0  0  0  0  0  0  0
    6.9557   -6.0709    0.0000 O   0  0  0  0  0  0  0  0  0  0  0  0
    5.8477    1.0404    0.0000 O   0  0  0  0  0  0  0  0  0  0  0  0
    9.4939    1.8799    0.0000 O   0  0  0  0  0  0  0  0  0  0  0  0
   11.0132   -8.4408    0.0000 O   0  0  0  0  0  0  0  0  0  0  0  0
    9.5379    7.5899    0.0000 O   0  0  0  0  0  0  0  0  0  0  0  0
    7.2963   -8.0112    0.0000 O   0  0  0  0  0  0  0  0  0  0  0  0
   12.9662   -3.0749    0.0000 O   0  0  0  0  0  0  0  0  0  0  0  0
    8.9014    1.2238    0.0000 O   0  0  0  0  0  0  0  0  0  0  0  0
    8.5596   -2.3656    0.0000 O   0  0  0  0  0  0  0  0  0  0  0  0
    5.1481    6.7832    0.0000 O   0  0  0  0  0  0  0  0  0  0  0  0
    5.8772    2.7547    0.0000 O   0  0  0  0  0  0  0  0  0  0  0  0
    7.8980   -6.4057    0.0000 O   0  0  0  0  0  0  0  0  0  0  0  0
   13.4922    4.2563    0.0000 O   0  0  0  0  0  0  0  0  0  0  0  0
   13.4991    5.1522    0.0000 O   0  0  0  0  0  0  0  0  0  0  0  0
   15.5764   -7.5400    0.0000 O   0  0  0  0  0  0  0  0  0  0  0  0
   15.8828   -6.6981    0.0000 O   0  0  0  0  0  0  0  0  0  0  0  0
    6.3741   -1.6135    0.0000 O   0  0  0  0  0  0  0  0  0  0  0  0
    9.4319   -0.0292    0.0000 O   0  0  0  0  0  0  0  0  0  0  0  0
    6.9039  -10.6882    0.0000 O   0  0  0  0  0  0  0  0  0  0  0  0
    5.3803   -1.6135    0.0000 O   0  0  0  0  0  0  0  0  0  0  0  0
   12.6718    1.0249    0.0000 O   0  0  0  0  0  0  0  0  0  0  0  0
    8.4223   -1.6293    0.0000 O   0  0  0  0  0  0  0  0  0  0  0  0
   13.7215  -10.3103    0.0000 O   0  0  0  0  0  0  0  0  0  0  0  0
   12.7286    8.3959    0.0000 O   0  0  0  0  0  0  0  0  0  0  0  0
   13.9982    2.7966    0.0000 O   0  0  0  0  0  0  0  0  0  0  0  0
   16.2426   -3.3836    0.0000 O   0  0  0  0  0  0  0  0  0  0  0  0
   15.5645   -9.0848    0.0000 O   0  0  0  0  0  0  0  0  0  0  0  0
   14.0275    6.6039    0.0000 O   0  0  0  0  0  0  0  0  0  0  0  0
    5.9675  -10.3556    0.0000 O   0  0  0  0  0  0  0  0  0  0  0  0
   16.8667   -5.5071    0.0000 O   0  0  0  0  0  0  0  0  0  0  0  0
   10.3875  -10.0601    0.0000 O   0  0  0  0  0  0  0  0  0  0  0  0
    8.8287  -11.3888    0.0000 O   0  0  0  0  0  0  0  0  0  0  0  0
    3.3321   -1.6293    0.0000 O   0  0  0  0  0  0  0  0  0  0  0  0
    2.3079    0.1446    0.0000 O   0  0  0  0  0  0  0  0  0  0  0  0
    4.0321   -9.6848    0.0000 O   0  0  0  0  0  0  0  0  0  0  0  0
    3.6610   -7.6704    0.0000 O   0  0  0  0  0  0  0  0  0  0  0  0
   10.6980    1.6370    0.0000 O   0  0  0  0  0  0  0  0  0  0  0  0
   12.1701    0.0767    0.0000 O   0  0  0  0  0  0  0  0  0  0  0  0
    7.7327   10.2932    0.0000 O   0  0  0  0  0  0  0  0  0  0  0  0
    4.2686   10.2799    0.0000 O   0  0  0  0  0  0  0  0  0  0  0  0
    5.9968   11.2865    0.0000 O   0  0  0  0  0  0  0  0  0  0  0  0
    7.7781    4.2275    0.0000 C   0  0  1  0  0  0  0  0  0  0  0  0
    6.8681    3.7207    0.0000 C   0  0  1  0  0  0  0  0  0  0  0  0
   10.1823   -5.6542    0.0000 C   0  0  1  0  0  0  0  0  0  0  0  0
    9.1551   -5.8272    0.0000 C   0  0  1  0  0  0  0  0  0  0  0  0
    7.7861    5.2691    0.0000 C   0  0  2  0  0  0  0  0  0  0  0  0
    6.0020    4.2207    0.0000 C   0  0  1  0  0  0  0  0  0  0  0  0
   10.5385   -4.6754    0.0000 C   0  0  2  0  0  0  0  0  0  0  0  0
    8.5064   -5.0661    0.0000 C   0  0  1  0  0  0  0  0  0  0  0  0
    6.8840    5.7899    0.0000 C   0  0  2  0  0  0  0  0  0  0  0  0
    9.8628   -3.8827    0.0000 C   0  0  1  0  0  0  0  0  0  0  0  0
    5.1360    3.7207    0.0000 C   0  0  0  0  0  0  0  0  0  0  0  0
    7.5230   -5.2474    0.0000 C   0  0  0  0  0  0  0  0  0  0  0  0
    6.3772    1.8887    0.0000 C   0  0  0  0  0  0  0  0  0  0  0  0
    9.5180    2.8796    0.0000 C   0  0  0  0  0  0  0  0  0  0  0  0
   11.3706   -7.5068    0.0000 C   0  0  0  0  0  0  0  0  0  0  0  0
    9.5467    6.5900    0.0000 C   0  0  0  0  0  0  0  0  0  0  0  0
    8.0793   -7.3891    0.0000 C   0  0  0  0  0  0  0  0  0  0  0  0
   12.6397   -4.0201    0.0000 C   0  0  0  0  0  0  0  0  0  0  0  0
    6.8772    1.0227    0.0000 C   0  0  0  0  0  0  0  0  0  0  0  0
   10.6270    3.2145    0.0000 C   0  0  0  0  0  0  0  0  0  0  0  0
   12.5277   -7.5625    0.0000 C   0  0  0  0  0  0  0  0  0  0  0  0
   10.6503    6.2381    0.0000 C   0  0  0  0  0  0  0  0  0  0  0  0
   13.5618   -4.7212    0.0000 C   0  0  0  0  0  0  0  0  0  0  0  0
    9.5424   -2.1805    0.0000 C   0  0  0  0  0  0  0  0  0  0  0  0
    6.0122    7.2866    0.0000 C   0  0  0  0  0  0  0  0  0  0  0  0
    8.2605   -8.3726    0.0000 C   0  0  0  0  0  0  0  0  0  0  0  0
   11.3212    4.1418    0.0000 C   0  0  0  0  0  0  0  0  0  0  0  0
   11.3301    5.3002    0.0000 C   0  0  0  0  0  0  0  0  0  0  0  0
   13.4922   -6.9211    0.0000 C   0  0  0  0  0  0  0  0  0  0  0  0
   13.8884   -5.8326    0.0000 C   0  0  0  0  0  0  0  0  0  0  0  0
    5.3772    1.8887    0.0000 C   0  0  0  0  0  0  0  0  0  0  0  0
    6.3772    0.1567    0.0000 C   0  0  0  0  0  0  0  0  0  0  0  0
    7.1370   -7.0544    0.0000 C   0  0  0  0  0  0  0  0  0  0  0  0
    7.4994   -9.0212    0.0000 C   0  0  0  0  0  0  0  0  0  0  0  0
    5.3772    0.1567    0.0000 C   0  0  0  0  0  0  0  0  0  0  0  0
    4.8772    1.0227    0.0000 C   0  0  0  0  0  0  0  0  0  0  0  0
    7.9187    1.0387    0.0000 C   0  0  0  0  0  0  0  0  0  0  0  0
    6.3759   -7.7030    0.0000 C   0  0  0  0  0  0  0  0  0  0  0  0
    6.5571   -8.6865    0.0000 C   0  0  0  0  0  0  0  0  0  0  0  0
    9.8735   -1.2369    0.0000 C   0  0  0  0  0  0  0  0  0  0  0  0
   11.0848    2.0981    0.0000 C   0  0  0  0  0  0  0  0  0  0  0  0
   12.5853   -8.7677    0.0000 C   0  0  0  0  0  0  0  0  0  0  0  0
   11.1252    7.3472    0.0000 C   0  0  0  0  0  0  0  0  0  0  0  0
    6.0084    8.2866    0.0000 C   0  0  0  0  0  0  0  0  0  0  0  0
   14.3807   -3.8350    0.0000 C   0  0  0  0  0  0  0  0  0  0  0  0
   12.5213    4.0170    0.0000 C   0  0  0  0  0  0  0  0  0  0  0  0
   12.5320    5.4064    0.0000 C   0  0  0  0  0  0  0  0  0  0  0  0
   14.5814   -7.4404    0.0000 C   0  0  0  0  0  0  0  0  0  0  0  0
    9.2473   -8.7061    0.0000 C   0  0  0  0  0  0  0  0  0  0  0  0
   15.0566   -6.1348    0.0000 C   0  0  0  0  0  0  0  0  0  0  0  0
    6.8840   -0.7533    0.0000 C   0  0  0  0  0  0  0  0  0  0  0  0
    8.4464    0.1407    0.0000 C   0  0  0  0  0  0  0  0  0  0  0  0
    7.6724  -10.0484    0.0000 C   0  0  0  0  0  0  0  0  0  0  0  0
    4.8703   -0.7533    0.0000 C   0  0  0  0  0  0  0  0  0  0  0  0
    9.2219   -0.4784    0.0000 C   0  0  0  0  0  0  0  0  0  0  0  0
   12.2817    1.9456    0.0000 C   0  0  0  0  0  0  0  0  0  0  0  0
    3.8357    1.0387    0.0000 C   0  0  0  0  0  0  0  0  0  0  0  0
    7.9256   -0.7614    0.0000 C   0  0  0  0  0  0  0  0  0  0  0  0
   13.6621   -9.3121    0.0000 C   0  0  0  0  0  0  0  0  0  0  0  0
   12.3243    7.4813    0.0000 C   0  0  0  0  0  0  0  0  0  0  0  0
   13.0048    2.9116    0.0000 C   0  0  0  0  0  0  0  0  0  0  0  0
   15.5555   -4.1102    0.0000 C   0  0  0  0  0  0  0  0  0  0  0  0
   14.6669   -8.6440    0.0000 C   0  0  0  0  0  0  0  0  0  0  0  0
    9.5530    0.4652    0.0000 C   0  0  0  0  0  0  0  0  0  0  0  0
   13.0325    6.5043    0.0000 C   0  0  0  0  0  0  0  0  0  0  0  0
    5.7749   -9.3743    0.0000 C   0  0  0  0  0  0  0  0  0  0  0  0
    5.3999   -7.3392    0.0000 C   0  0  0  0  0  0  0  0  0  0  0  0
   15.8957   -5.2678    0.0000 C   0  0  0  0  0  0  0  0  0  0  0  0
   10.8562   -1.0519    0.0000 C   0  0  0  0  0  0  0  0  0  0  0  0
    9.4440   -9.7290    0.0000 C   0  0  0  0  0  0  0  0  0  0  0  0
    8.6512  -10.4047    0.0000 C   0  0  0  0  0  0  0  0  0  0  0  0
    5.1404    8.7832    0.0000 C   0  0  0  0  0  0  0  0  0  0  0  0
    6.8724    8.7899    0.0000 C   0  0  0  0  0  0  0  0  0  0  0  0
    3.8287   -0.7614    0.0000 C   0  0  0  0  0  0  0  0  0  0  0  0
    3.3079    0.1407    0.0000 C   0  0  0  0  0  0  0  0  0  0  0  0
    4.7907   -9.0332    0.0000 C   0  0  0  0  0  0  0  0  0  0  0  0
    4.6020   -8.0088    0.0000 C   0  0  0  0  0  0  0  0  0  0  0  0
   10.5358    0.6502    0.0000 C   0  0  0  0  0  0  0  0  0  0  0  0
   11.1874   -0.1083    0.0000 C   0  0  0  0  0  0  0  0  0  0  0  0
    6.8686    9.7899    0.0000 C   0  0  0  0  0  0  0  0  0  0  0  0
    5.1366    9.7832    0.0000 C   0  0  0  0  0  0  0  0  0  0  0  0
    6.0006   10.2865    0.0000 C   0  0  0  0  0  0  0  0  0  0  0  0
    7.5808    3.4007    0.0000 H   0  0  0  0  0  0  0  0  0  0  0  0
    7.6009    3.2900    0.0000 H   0  0  0  0  0  0  0  0  0  0  0  0
    9.7196   -6.3673    0.0000 H   0  0  0  0  0  0  0  0  0  0  0  0
    9.7015   -6.4783    0.0000 H   0  0  0  0  0  0  0  0  0  0  0  0
    7.6016    6.0988    0.0000 H   0  0  0  0  0  0  0  0  0  0  0  0
    5.2627    4.6400    0.0000 H   0  0  0  0  0  0  0  0  0  0  0  0
   10.6425   -3.8318    0.0000 H   0  0  0  0  0  0  0  0  0  0  0  0
    7.9501   -4.4235    0.0000 H   0  0  0  0  0  0  0  0  0  0  0  0
    7.4203    6.1010    0.0000 H   0  0  0  0  0  0  0  0  0  0  0  0
   10.4724   -3.7691    0.0000 H   0  0  0  0  0  0  0  0  0  0  0  0
    4.9755    4.3195    0.0000 H   0  0  0  0  0  0  0  0  0  0  0  0
    4.5160    3.7207    0.0000 H   0  0  0  0  0  0  0  0  0  0  0  0
    7.5723   -4.6293    0.0000 H   0  0  0  0  0  0  0  0  0  0  0  0
    6.9388   -5.0398    0.0000 H   0  0  0  0  0  0  0  0  0  0  0  0
   10.7075    1.6061    0.0000 H   0  0  0  0  0  0  0  0  0  0  0  0
   12.0651   -9.1050    0.0000 H   0  0  0  0  0  0  0  0  0  0  0  0
   10.7556    7.8450    0.0000 H   0  0  0  0  0  0  0  0  0  0  0  0
   14.1990   -3.2422    0.0000 H   0  0  0  0  0  0  0  0  0  0  0  0
    9.7145   -8.2985    0.0000 H   0  0  0  0  0  0  0  0  0  0  0  0
    8.6126   -0.5931    0.0000 H   0  0  0  0  0  0  0  0  0  0  0  0
    3.5319    1.5792    0.0000 H   0  0  0  0  0  0  0  0  0  0  0  0
    5.2945   -6.7283    0.0000 H   0  0  0  0  0  0  0  0  0  0  0  0
   11.2602   -1.5222    0.0000 H   0  0  0  0  0  0  0  0  0  0  0  0
    4.6047    8.4712    0.0000 H   0  0  0  0  0  0  0  0  0  0  0  0
    7.4106    8.4820    0.0000 H   0  0  0  0  0  0  0  0  0  0  0  0
   13.6648    4.8518    0.0000 H   0  0  0  0  0  0  0  0  0  0  0  0
   13.9355    5.5927    0.0000 H   0  0  0  0  0  0  0  0  0  0  0  0
   15.8314   -8.1051    0.0000 H   0  0  0  0  0  0  0  0  0  0  0  0
   16.4414   -6.4292    0.0000 H   0  0  0  0  0  0  0  0  0  0  0  0
    6.6778   -2.1540    0.0000 H   0  0  0  0  0  0  0  0  0  0  0  0
    9.9084   -0.4258    0.0000 H   0  0  0  0  0  0  0  0  0  0  0  0
    7.0092  -11.2992    0.0000 H   0  0  0  0  0  0  0  0  0  0  0  0
    5.0766   -2.1540    0.0000 H   0  0  0  0  0  0  0  0  0  0  0  0
   13.2871    0.9489    0.0000 H   0  0  0  0  0  0  0  0  0  0  0  0
    9.0423   -1.6317    0.0000 H   0  0  0  0  0  0  0  0  0  0  0  0
   13.2039  -10.6517    0.0000 H   0  0  0  0  0  0  0  0  0  0  0  0
   12.3628    8.8965    0.0000 H   0  0  0  0  0  0  0  0  0  0  0  0
   14.3678    3.2944    0.0000 H   0  0  0  0  0  0  0  0  0  0  0  0
   16.0655   -2.7894    0.0000 H   0  0  0  0  0  0  0  0  0  0  0  0
   15.6060   -9.7034    0.0000 H   0  0  0  0  0  0  0  0  0  0  0  0
   14.2825    7.1690    0.0000 H   0  0  0  0  0  0  0  0  0  0  0  0
    5.5003  -10.7632    0.0000 H   0  0  0  0  0  0  0  0  0  0  0  0
   17.0392   -6.1026    0.0000 H   0  0  0  0  0  0  0  0  0  0  0  0
   10.5023  -10.6694    0.0000 H   0  0  0  0  0  0  0  0  0  0  0  0
    9.4121  -11.5986    0.0000 H   0  0  0  0  0  0  0  0  0  0  0  0
    2.7121   -1.6317    0.0000 H   0  0  0  0  0  0  0  0  0  0  0  0
    2.0000    0.6827    0.0000 H   0  0  0  0  0  0  0  0  0  0  0  0
    3.4472   -9.4795    0.0000 H   0  0  0  0  0  0  0  0  0  0  0  0
    3.5510   -7.0603    0.0000 H   0  0  0  0  0  0  0  0  0  0  0  0
   10.2185    2.0300    0.0000 H   0  0  0  0  0  0  0  0  0  0  0  0
   12.5741   -0.3936    0.0000 H   0  0  0  0  0  0  0  0  0  0  0  0
    8.2708    9.9853    0.0000 H   0  0  0  0  0  0  0  0  0  0  0  0
    4.2662   10.8999    0.0000 H   0  0  0  0  0  0  0  0  0  0  0  0
    6.5325   11.5986    0.0000 H   0  0  0  0  0  0  0  0  0  0  0  0
  1 58  1  0  0  0  0
  1 61  1  0  0  0  0
  2 60  1  0  0  0  0
  2 62  1  0  0  0  0
  3 53  1  0  0  0  0
  3 66  1  0  0  0  0
  4 54  1  0  0  0  0
  4 65  1  0  0  0  0
  5 55  1  0  0  0  0
  5 67  1  0  0  0  0
  6 56  1  0  0  0  0
  6 69  1  0  0  0  0
  7 57  1  0  0  0  0
  7 68  1  0  0  0  0
  8 59  1  0  0  0  0
  8 70  1  0  0  0  0
 61  9  1  6  0  0  0
  9 77  1  0  0  0  0
 62 10  1  1  0  0  0
 10 76  1  0  0  0  0
 11 63  1  0  0  0  0
 11 83  1  0  0  0  0
 12 64  1  0  0  0  0
 12 85  1  0  0  0  0
 13 65  2  0  0  0  0
 14 66  2  0  0  0  0
 15 67  2  0  0  0  0
 16 68  2  0  0  0  0
 17 69  2  0  0  0  0
 18 70  2  0  0  0  0
 19 89  1  0  0  0  0
 19116  1  0  0  0  0
 20 76  2  0  0  0  0
 21 77  2  0  0  0  0
 22 83  2  0  0  0  0
 23 85  2  0  0  0  0
 24 98  1  0  0  0  0
 24160  1  0  0  0  0
 25 99  1  0  0  0  0
 25161  1  0  0  0  0
 26100  1  0  0  0  0
 26162  1  0  0  0  0
 27102  1  0  0  0  0
 27163  1  0  0  0  0
 28103  1  0  0  0  0
 28164  1  0  0  0  0
 29104  1  0  0  0  0
 29165  1  0  0  0  0
 30105  1  0  0  0  0
 30166  1  0  0  0  0
 31106  1  0  0  0  0
 31167  1  0  0  0  0
 32108  1  0  0  0  0
 32168  1  0  0  0  0
 33110  1  0  0  0  0
 33169  1  0  0  0  0
 34111  1  0  0  0  0
 34170  1  0  0  0  0
 35112  1  0  0  0  0
 35171  1  0  0  0  0
 36113  1  0  0  0  0
 36172  1  0  0  0  0
 37114  1  0  0  0  0
 37173  1  0  0  0  0
 38115  1  0  0  0  0
 38174  1  0  0  0  0
 39117  1  0  0  0  0
 39175  1  0  0  0  0
 40118  1  0  0  0  0
 40176  1  0  0  0  0
 41120  1  0  0  0  0
 41177  1  0  0  0  0
 42122  1  0  0  0  0
 42178  1  0  0  0  0
 43123  1  0  0  0  0
 43179  1  0  0  0  0
 44126  1  0  0  0  0
 44180  1  0  0  0  0
 45127  1  0  0  0  0
 45181  1  0  0  0  0
 46128  1  0  0  0  0
 46182  1  0  0  0  0
 47129  1  0  0  0  0
 47183  1  0  0  0  0
 48130  1  0  0  0  0
 48184  1  0  0  0  0
 49131  1  0  0  0  0
 49185  1  0  0  0  0
 50132  1  0  0  0  0
 50186  1  0  0  0  0
 51133  1  0  0  0  0
 51187  1  0  0  0  0
 52134  1  0  0  0  0
 52188  1  0  0  0  0
 53 54  1  0  0  0  0
 53 57  1  0  0  0  0
 53135  1  6  0  0  0
 54 58  1  0  0  0  0
 54136  1  1  0  0  0
 55 56  1  0  0  0  0
 55 59  1  0  0  0  0
 55137  1  6  0  0  0
 56 60  1  0  0  0  0
 56138  1  1  0  0  0
 57 61  1  0  0  0  0
 57139  1  1  0  0  0
 58 63  1  0  0  0  0
 58140  1  6  0  0  0
 59 62  1  0  0  0  0
 59141  1  1  0  0  0
 60 64  1  0  0  0  0
 60142  1  6  0  0  0
 61143  1  0  0  0  0
 62144  1  0  0  0  0
 63145  1  0  0  0  0
 63146  1  0  0  0  0
 64147  1  0  0  0  0
 64148  1  0  0  0  0
 65 71  1  0  0  0  0
 66 72  1  0  0  0  0
 67 73  1  0  0  0  0
 68 74  1  0  0  0  0
 69 78  1  0  0  0  0
 70 75  1  0  0  0  0
 71 84  2  0  0  0  0
 71 89  1  0  0  0  0
 72 79  1  0  0  0  0
 72 93  2  0  0  0  0
 73 81  1  0  0  0  0
 73 94  2  0  0  0  0
 74 80  1  0  0  0  0
 74 95  2  0  0  0  0
 75 82  1  0  0  0  0
 75 97  2  0  0  0  0
 76 92  1  0  0  0  0
 77 96  1  0  0  0  0
 78 86  1  0  0  0  0
 78101  2  0  0  0  0
 79 80  1  0  0  0  0
 79 98  2  0  0  0  0
 80 99  2  0  0  0  0
 81 82  1  0  0  0  0
 81100  2  0  0  0  0
 82102  2  0  0  0  0
 83 88  1  0  0  0  0
 84 87  1  0  0  0  0
 84103  1  0  0  0  0
 85 90  1  0  0  0  0
 86 91  1  0  0  0  0
 86105  2  0  0  0  0
 87 88  1  0  0  0  0
 87106  2  0  0  0  0
 88109  2  0  0  0  0
 89104  2  0  0  0  0
 90 91  1  0  0  0  0
 90119  2  0  0  0  0
 91118  2  0  0  0  0
 92107  1  0  0  0  0
 92121  2  0  0  0  0
 93108  1  0  0  0  0
 93149  1  0  0  0  0
 94111  1  0  0  0  0
 94150  1  0  0  0  0
 95112  1  0  0  0  0
 95151  1  0  0  0  0
 96124  2  0  0  0  0
 96125  1  0  0  0  0
 97114  1  0  0  0  0
 97152  1  0  0  0  0
 98113  1  0  0  0  0
 99117  1  0  0  0  0
100115  1  0  0  0  0
101122  1  0  0  0  0
101153  1  0  0  0  0
102120  1  0  0  0  0
103110  2  0  0  0  0
104110  1  0  0  0  0
105123  1  0  0  0  0
106126  1  0  0  0  0
107116  2  0  0  0  0
107154  1  0  0  0  0
108113  2  0  0  0  0
109127  1  0  0  0  0
109155  1  0  0  0  0
111115  2  0  0  0  0
112117  2  0  0  0  0
114120  2  0  0  0  0
116130  1  0  0  0  0
118128  1  0  0  0  0
119129  1  0  0  0  0
119156  1  0  0  0  0
121131  1  0  0  0  0
121157  1  0  0  0  0
122123  2  0  0  0  0
124133  1  0  0  0  0
124158  1  0  0  0  0
125132  2  0  0  0  0
125159  1  0  0  0  0
126127  2  0  0  0  0
128129  2  0  0  0  0
130131  2  0  0  0  0
132134  1  0  0  0  0
133134  2  0  0  0  0
M  END
> <PUBCHEM_COMPOUND_CID>
16130897

> <PUBCHEM_COMPOUND_CANONICALIZED>
1

> <PUBCHEM_CACTVS_COMPLEXITY>
4310

> <PUBCHEM_CACTVS_HBOND_ACCEPTOR>
52

> <PUBCHEM_CACTVS_HBOND_DONOR>
29

> <PUBCHEM_CACTVS_ROTATABLE_BOND>
8

> <PUBCHEM_CACTVS_SUBSKEYS>
AAADcfB8PgAAAAAAAAAAAAAAAAAAAAAAAAA0aMGDAAAAAACRVAAAGgAACAAADBSwmAMwDoAABgCIAiDSCAACCAAkIAAAiAEGiMgdJzaGNRqieWOl4BUPuYfK7PzOoQABCAAYQABCAAIQADCAAAAAAAAAAA==

> <PUBCHEM_IUPAC_OPENEYE_NAME>
[(1R,2S,19R,20R,22R)-36-[5-[[(1R,2S,19R,20S,22R)-7,8,9,12,13,14,28,29,30,33,34,35-dodecahydroxy-4,17,25,38-tetraoxo-3,18,21,24,39-pentaoxaheptacyclo[20.17.0.02,19.05,10.011,16.026,31.032,37]nonatriaconta-5,7,9,11,13,15,26,28,30,32,34,36-dodecaen-20-yl]oxycarbonyl]-2,3-dihydroxy-phenoxy]-7,8,9,12,13,14,28,29,30,33,34,35-dodecahydroxy-4,17,25,38-tetraoxo-3,18,21,24,39-pentaoxaheptacyclo[20.17.0.02,19.05,10.011,16.026,31.032,37]nonatriaconta-5,7,9,11,13,15,26,28,30,32(37),33,35-dodecaen-20-yl] 3,4,5-trihydroxybenzoate

> <PUBCHEM_IUPAC_CAS_NAME>
3,4,5-trihydroxybenzoic acid [(1R,2S,19R,20R,22R)-36-[5-[[(1R,2S,19R,20S,22R)-7,8,9,12,13,14,28,29,30,33,34,35-dodecahydroxy-4,17,25,38-tetraoxo-3,18,21,24,39-pentaoxaheptacyclo[20.17.0.02,19.05,10.011,16.026,31.032,37]nonatriaconta-5,7,9,11,13,15,26,28,30,32,34,36-dodecaen-20-yl]oxy-oxomethyl]-2,3-dihydroxyphenoxy]-7,8,9,12,13,14,28,29,30,33,34,35-dodecahydroxy-4,17,25,38-tetraoxo-3,18,21,24,39-pentaoxaheptacyclo[20.17.0.02,19.05,10.011,16.026,31.032,37]nonatriaconta-5,7,9,11,13,15,26,28,30,32(37),33,35-dodecaen-20-yl] ester

> <PUBCHEM_IUPAC_NAME_MARKUP>
[(1<I>R</I>,2<I>S</I>,19<I>R</I>,20<I>R</I>,22<I>R</I>)-36-[5-[[(1<I>R</I>,2<I>S</I>,19<I>R</I>,20<I>S</I>,22<I>R</I>)-7,8,9,12,13,14,28,29,30,33,34,35-dodecahydroxy-4,17,25,38-tetraoxo-3,18,21,24,39-pentaoxaheptacyclo[20.17.0.0<SUP>2,19</SUP>.0<SUP>5,10</SUP>.0<SUP>11,16</SUP>.0<SUP>26,31</SUP>.0<SUP>32,37</SUP>]nonatriaconta-5,7,9,11,13,15,26,28,30,32,34,36-dodecaen-20-yl]oxycarbonyl]-2,3-dihydroxyphenoxy]-7,8,9,12,13,14,28,29,30,33,34,35-dodecahydroxy-4,17,25,38-tetraoxo-3,18,21,24,39-pentaoxaheptacyclo[20.17.0.0<SUP>2,19</SUP>.0<SUP>5,10</SUP>.0<SUP>11,16</SUP>.0<SUP>26,31</SUP>.0<SUP>32,37</SUP>]nonatriaconta-5,7,9,11,13,15,26,28,30,32(37),33,35-dodecaen-20-yl] 3,4,5-trihydroxybenzoate

> <PUBCHEM_IUPAC_NAME>
[(1R,2S,19R,20R,22R)-36-[5-[[(1R,2S,19R,20S,22R)-7,8,9,12,13,14,28,29,30,33,34,35-dodecahydroxy-4,17,25,38-tetraoxo-3,18,21,24,39-pentaoxaheptacyclo[20.17.0.02,19.05,10.011,16.026,31.032,37]nonatriaconta-5,7,9,11,13,15,26,28,30,32,34,36-dodecaen-20-yl]oxycarbonyl]-2,3-dihydroxyphenoxy]-7,8,9,12,13,14,28,29,30,33,34,35-dodecahydroxy-4,17,25,38-tetraoxo-3,18,21,24,39-pentaoxaheptacyclo[20.17.0.02,19.05,10.011,16.026,31.032,37]nonatriaconta-5,7,9,11,13,15,26,28,30,32(37),33,35-dodecaen-20-yl] 3,4,5-trihydroxybenzoate

> <PUBCHEM_IUPAC_SYSTEMATIC_NAME>
[(1R,2S,19R,20R,22R)-36-[5-[[(1R,2S,19R,20S,22R)-7,8,9,12,13,14,28,29,30,33,34,35-dodecakis(oxidanyl)-4,17,25,38-tetrakis(oxidanylidene)-3,18,21,24,39-pentaoxaheptacyclo[20.17.0.02,19.05,10.011,16.026,31.032,37]nonatriaconta-5,7,9,11,13,15,26,28,30,32,34,36-dodecaen-20-yl]oxycarbonyl]-2,3-bis(oxidanyl)phenoxy]-7,8,9,12,13,14,28,29,30,33,34,35-dodecakis(oxidanyl)-4,17,25,38-tetrakis(oxidanylidene)-3,18,21,24,39-pentaoxaheptacyclo[20.17.0.02,19.05,10.011,16.026,31.032,37]nonatriaconta-5,7,9,11,13,15,26,28,30,32(37),33,35-dodecaen-20-yl] 3,4,5-tris(oxidanyl)benzoate

> <PUBCHEM_IUPAC_TRADITIONAL_NAME>
3,4,5-trihydroxybenzoic acid [(1R,2S,19R,20R,22R)-36-[5-[[(1R,2S,19R,20S,22R)-7,8,9,12,13,14,28,29,30,33,34,35-dodecahydroxy-4,17,25,38-tetraketo-3,18,21,24,39-pentaoxaheptacyclo[20.17.0.02,19.05,10.011,16.026,31.032,37]nonatriaconta-5,7,9,11,13,15,26,28,30,32,34,36-dodecaen-20-yl]oxycarbonyl]-2,3-dihydroxy-phenoxy]-7,8,9,12,13,14,28,29,30,33,34,35-dodecahydroxy-4,17,25,38-tetraketo-3,18,21,24,39-pentaoxaheptacyclo[20.17.0.02,19.05,10.011,16.026,31.032,37]nonatriaconta-5,7,9,11,13,15,26,28,30,32(37),33,35-dodecaen-20-yl] ester

> <PUBCHEM_IUPAC_INCHI>
InChI=1S/C82H54O52/c83-23-1-14(2-24(84)45(23)93)71(112)133-81-70-68(130-77(118)20-9-30(90)50(98)57(105)39(20)41-22(79(120)132-70)11-32(92)52(100)59(41)107)65-35(126-81)13-123-74(115)17-6-27(87)53(101)60(108)42(17)43-44(80(121)128-65)66(63(111)62(110)61(43)109)124-33-4-15(3-25(85)46(33)94)72(113)134-82-69-67(129-76(117)19-8-29(89)49(97)56(104)38(19)40-21(78(119)131-69)10-31(91)51(99)58(40)106)64-34(125-82)12-122-73(114)16-5-26(86)47(95)54(102)36(16)37-18(75(116)127-64)7-28(88)48(96)55(37)103/h1-11,34-35,64-65,67-70,81-111H,12-13H2/t34-,35-,64-,65-,67+,68+,69-,70-,81-,82+/m1/s1

> <PUBCHEM_IUPAC_INCHIKEY>
FFZOOOCGCNFHAQ-GWOIDVGPSA-N

> <PUBCHEM_XLOGP3_AA>
4.2

> <PUBCHEM_EXACT_MASS>
1870.1581119

> <PUBCHEM_MOLECULAR_FORMULA>
C82H54O52

> <PUBCHEM_MOLECULAR_WEIGHT>
1871.3

> <PUBCHEM_SMILES>
C1[C@@H]2[C@H]([C@H]3[C@H]([C@@H](O2)OC(=O)C4=CC(=C(C(=C4)OC5=C(C(=C(C6=C5C(=O)O[C@@H]7[C@@H](COC(=O)C8=CC(=C(C(=C86)O)O)O)O[C@@H]([C@H]9[C@H]7OC(=O)C2=CC(=C(C(=C2C2=C(C(=C(C=C2C(=O)O9)O)O)O)O)O)O)OC(=O)C2=CC(=C(C(=C2)O)O)O)O)O)O)O)O)OC(=O)C2=CC(=C(C(=C2C2=C(C(=C(C=C2C(=O)O3)O)O)O)O)O)O)OC(=O)C2=CC(=C(C(=C2C2=C(C(=C(C=C2C(=O)O1)O)O)O)O)O)O

> <PUBCHEM_CONNECTIVITY_SMILES>
C1C2C(C3C(C(O2)OC(=O)C4=CC(=C(C(=C4)OC5=C(C(=C(C6=C5C(=O)OC7C(COC(=O)C8=CC(=C(C(=C86)O)O)O)OC(C9C7OC(=O)C2=CC(=C(C(=C2C2=C(C(=C(C=C2C(=O)O9)O)O)O)O)O)O)OC(=O)C2=CC(=C(C(=C2)O)O)O)O)O)O)O)O)OC(=O)C2=CC(=C(C(=C2C2=C(C(=C(C=C2C(=O)O3)O)O)O)O)O)O)OC(=O)C2=CC(=C(C(=C2C2=C(C(=C(C=C2C(=O)O1)O)O)O)O)O)O

> <PUBCHEM_CACTVS_TPSA>
877

> <PUBCHEM_MONOISOTOPIC_WEIGHT>
1870.1581119

> <PUBCHEM_TOTAL_CHARGE>
0

> <PUBCHEM_HEAVY_ATOM_COUNT>
134

> <PUBCHEM_ATOM_DEF_STEREO_COUNT>
10

> <PUBCHEM_ATOM_UDEF_STEREO_COUNT>
0

> <PUBCHEM_BOND_DEF_STEREO_COUNT>
0

> <PUBCHEM_BOND_UDEF_STEREO_COUNT>
0

> <PUBCHEM_ISOTOPIC_ATOM_COUNT>
0

> <PUBCHEM_COMPONENT_COUNT>
1

> <PUBCHEM_CACTVS_TAUTO_COUNT>
-1

> <PUBCHEM_COORDINATE_TYPE>
1
5
255

> <PUBCHEM_BONDANNOTATIONS>
62  10  5
100  115  8
101  122  8
102  120  8
103  110  8
104  110  8
105  123  8
106  126  8
107  116  8
108  113  8
109  127  8
111  115  8
112  117  8
114  120  8
116  130  8
118  128  8
119  129  8
121  131  8
122  123  8
124  133  8
125  132  8
126  127  8
128  129  8
130  131  8
132  134  8
133  134  8
53  135  6
54  136  5
55  137  6
56  138  5
57  139  5
58  140  6
59  141  5
60  142  6
71  84  8
71  89  8
72  79  8
72  93  8
73  81  8
73  94  8
74  80  8
74  95  8
75  82  8
75  97  8
78  101  8
78  86  8
79  98  8
80  99  8
81  100  8
82  102  8
84  103  8
86  105  8
87  106  8
87  88  8
88  109  8
89  104  8
61  9  6
90  119  8
90  91  8
91  118  8
92  107  8
92  121  8
93  108  8
94  111  8
95  112  8
96  124  8
96  125  8
97  114  8
98  113  8
99  117  8

$$$$
