101146656
  -OEChem-01202614002D

 82 87  0     1  0  0  0  0  0999 V2000
    7.8163    1.0851    0.0000 O   0  0  0  0  0  0  0  0  0  0  0  0
    7.8003   -1.9842    0.0000 O   0  0  0  0  0  0  0  0  0  0  0  0
    6.0682   -0.9842    0.0000 O   0  0  0  0  0  0  0  0  0  0  0  0
    9.5705   -0.9873    0.0000 O   0  0  0  0  0  0  0  0  0  0  0  0
    6.0465    1.0473    0.0000 O   0  0  0  0  0  0  0  0  0  0  0  0
    9.5901    2.0609    0.0000 O   0  0  0  0  0  0  0  0  0  0  0  0
    6.9343   -1.4842    0.0000 O   0  0  0  0  0  0  0  0  0  0  0  0
    6.0682   -2.9842    0.0000 O   0  0  0  0  0  0  0  0  0  0  0  0
    6.8951    2.5572    0.0000 O   0  0  0  0  0  0  0  0  0  0  0  0
    5.1804   -5.5156    0.0000 O   0  0  0  0  0  0  0  0  0  0  0  0
    4.3198   -5.0188    0.0000 O   0  0  0  0  0  0  0  0  0  0  0  0
   11.3222    2.0542    0.0000 O   0  0  0  0  0  0  0  0  0  0  0  0
    8.7202   -5.5293    0.0000 O   0  0  0  0  0  0  0  0  0  0  0  0
    6.9464   -6.5534    0.0000 O   0  0  0  0  0  0  0  0  0  0  0  0
    2.5381   -1.9600    0.0000 O   0  0  0  0  0  0  0  0  0  0  0  0
    2.5381   -4.0083    0.0000 O   0  0  0  0  0  0  0  0  0  0  0  0
    2.5710    2.0072    0.0000 O   0  0  0  0  0  0  0  0  0  0  0  0
    4.2683    5.0270    0.0000 O   0  0  0  0  0  0  0  0  0  0  0  0
    2.5479    4.0070    0.0000 O   0  0  0  0  0  0  0  0  0  0  0  0
    8.7376    5.5642    0.0000 O   0  0  0  0  0  0  0  0  0  0  0  0
   12.2017    5.5509    0.0000 O   0  0  0  0  0  0  0  0  0  0  0  0
   10.4735    6.5576    0.0000 O   0  0  0  0  0  0  0  0  0  0  0  0
    7.8003   -0.9842    0.0000 C   0  0  1  0  0  0  0  0  0  0  0  0
    8.7103   -0.4773    0.0000 C   0  0  1  0  0  0  0  0  0  0  0  0
    6.9343   -0.4842    0.0000 C   0  0  2  0  0  0  0  0  0  0  0  0
    8.7183    0.5643    0.0000 C   0  0  1  0  0  0  0  0  0  0  0  0
    6.9182    0.5573    0.0000 C   0  0  2  0  0  0  0  0  0  0  0  0
    9.5863    1.0609    0.0000 C   0  0  0  0  0  0  0  0  0  0  0  0
    6.9343   -2.4842    0.0000 C   0  0  0  0  0  0  0  0  0  0  0  0
    6.0682   -1.9842    0.0000 C   0  0  0  0  0  0  0  0  0  0  0  0
    6.9343   -3.4842    0.0000 C   0  0  0  0  0  0  0  0  0  0  0  0
    5.2022   -2.4842    0.0000 C   0  0  0  0  0  0  0  0  0  0  0  0
    6.0682   -3.9842    0.0000 C   0  0  0  0  0  0  0  0  0  0  0  0
    5.2022   -3.4842    0.0000 C   0  0  0  0  0  0  0  0  0  0  0  0
    6.0349    2.0472    0.0000 C   0  0  0  0  0  0  0  0  0  0  0  0
   10.4581    2.5576    0.0000 C   0  0  0  0  0  0  0  0  0  0  0  0
    7.8443   -3.9910    0.0000 C   0  0  0  0  0  0  0  0  0  0  0  0
    4.3083   -1.9495    0.0000 C   0  0  0  0  0  0  0  0  0  0  0  0
    6.0522   -5.0257    0.0000 C   0  0  0  0  0  0  0  0  0  0  0  0
    4.3083   -4.0188    0.0000 C   0  0  0  0  0  0  0  0  0  0  0  0
    5.1632    2.5372    0.0000 C   0  0  0  0  0  0  0  0  0  0  0  0
    7.8523   -5.0326    0.0000 C   0  0  0  0  0  0  0  0  0  0  0  0
    6.9502   -5.5534    0.0000 C   0  0  0  0  0  0  0  0  0  0  0  0
    3.4022   -2.4634    0.0000 C   0  0  0  0  0  0  0  0  0  0  0  0
    3.4022   -3.5050    0.0000 C   0  0  0  0  0  0  0  0  0  0  0  0
   10.4619    3.5576    0.0000 C   0  0  0  0  0  0  0  0  0  0  0  0
    5.1516    3.5371    0.0000 C   0  0  0  0  0  0  0  0  0  0  0  0
    4.3030    2.0272    0.0000 C   0  0  0  0  0  0  0  0  0  0  0  0
   11.3299    4.0542    0.0000 C   0  0  0  0  0  0  0  0  0  0  0  0
    9.5978    4.0609    0.0000 C   0  0  0  0  0  0  0  0  0  0  0  0
    3.4312    2.5172    0.0000 C   0  0  0  0  0  0  0  0  0  0  0  0
    4.2798    4.0271    0.0000 C   0  0  0  0  0  0  0  0  0  0  0  0
    3.4197    3.5171    0.0000 C   0  0  0  0  0  0  0  0  0  0  0  0
    9.6017    5.0609    0.0000 C   0  0  0  0  0  0  0  0  0  0  0  0
   11.3337    5.0542    0.0000 C   0  0  0  0  0  0  0  0  0  0  0  0
   10.4696    5.5576    0.0000 C   0  0  0  0  0  0  0  0  0  0  0  0
    8.5331   -1.4148    0.0000 H   0  0  0  0  0  0  0  0  0  0  0  0
    8.7019   -1.0973    0.0000 H   0  0  0  0  0  0  0  0  0  0  0  0
    6.1949   -0.0649    0.0000 H   0  0  0  0  0  0  0  0  0  0  0  0
    8.7195    1.1843    0.0000 H   0  0  0  0  0  0  0  0  0  0  0  0
    6.3855    0.2401    0.0000 H   0  0  0  0  0  0  0  0  0  0  0  0
    9.7961    0.4775    0.0000 H   0  0  0  0  0  0  0  0  0  0  0  0
   10.1973    1.1662    0.0000 H   0  0  0  0  0  0  0  0  0  0  0  0
   10.1110   -0.6835    0.0000 H   0  0  0  0  0  0  0  0  0  0  0  0
    8.3776   -3.6748    0.0000 H   0  0  0  0  0  0  0  0  0  0  0  0
    4.3154   -1.3296    0.0000 H   0  0  0  0  0  0  0  0  0  0  0  0
    5.6849    3.8533    0.0000 H   0  0  0  0  0  0  0  0  0  0  0  0
    4.3101    1.4072    0.0000 H   0  0  0  0  0  0  0  0  0  0  0  0
    5.1733   -6.1356    0.0000 H   0  0  0  0  0  0  0  0  0  0  0  0
    3.7865   -5.3350    0.0000 H   0  0  0  0  0  0  0  0  0  0  0  0
   11.8656    3.7422    0.0000 H   0  0  0  0  0  0  0  0  0  0  0  0
    9.0597    3.7530    0.0000 H   0  0  0  0  0  0  0  0  0  0  0  0
    9.2560   -5.2172    0.0000 H   0  0  0  0  0  0  0  0  0  0  0  0
    7.4821   -6.8655    0.0000 H   0  0  0  0  0  0  0  0  0  0  0  0
    2.5405   -1.3400    0.0000 H   0  0  0  0  0  0  0  0  0  0  0  0
    2.0000   -3.7004    0.0000 H   0  0  0  0  0  0  0  0  0  0  0  0
    2.0306    2.3109    0.0000 H   0  0  0  0  0  0  0  0  0  0  0  0
    4.8016    5.3432    0.0000 H   0  0  0  0  0  0  0  0  0  0  0  0
    2.5407    4.6270    0.0000 H   0  0  0  0  0  0  0  0  0  0  0  0
    8.7400    6.1842    0.0000 H   0  0  0  0  0  0  0  0  0  0  0  0
   12.7374    5.2388    0.0000 H   0  0  0  0  0  0  0  0  0  0  0  0
   11.0116    6.8655    0.0000 H   0  0  0  0  0  0  0  0  0  0  0  0
  1 26  1  0  0  0  0
  1 27  1  0  0  0  0
  2 23  1  0  0  0  0
  2 29  1  0  0  0  0
  3 25  1  0  0  0  0
  3 30  1  0  0  0  0
 24  4  1  1  0  0  0
  4 64  1  0  0  0  0
 27  5  1  1  0  0  0
  5 35  1  0  0  0  0
  6 28  1  0  0  0  0
  6 36  1  0  0  0  0
  7 29  2  0  0  0  0
  8 30  2  0  0  0  0
  9 35  2  0  0  0  0
 10 39  1  0  0  0  0
 10 69  1  0  0  0  0
 11 40  1  0  0  0  0
 11 70  1  0  0  0  0
 12 36  2  0  0  0  0
 13 42  1  0  0  0  0
 13 73  1  0  0  0  0
 14 43  1  0  0  0  0
 14 74  1  0  0  0  0
 15 44  1  0  0  0  0
 15 75  1  0  0  0  0
 16 45  1  0  0  0  0
 16 76  1  0  0  0  0
 17 51  1  0  0  0  0
 17 77  1  0  0  0  0
 18 52  1  0  0  0  0
 18 78  1  0  0  0  0
 19 53  1  0  0  0  0
 19 79  1  0  0  0  0
 20 54  1  0  0  0  0
 20 80  1  0  0  0  0
 21 55  1  0  0  0  0
 21 81  1  0  0  0  0
 22 56  1  0  0  0  0
 22 82  1  0  0  0  0
 23 24  1  0  0  0  0
 23 25  1  0  0  0  0
 23 57  1  1  0  0  0
 24 26  1  0  0  0  0
 24 58  1  0  0  0  0
 25 27  1  0  0  0  0
 25 59  1  6  0  0  0
 26 28  1  6  0  0  0
 26 60  1  0  0  0  0
 27 61  1  0  0  0  0
 28 62  1  0  0  0  0
 28 63  1  0  0  0  0
 29 31  1  0  0  0  0
 30 32  1  0  0  0  0
 31 33  1  0  0  0  0
 31 37  2  0  0  0  0
 32 34  1  0  0  0  0
 32 38  2  0  0  0  0
 33 34  1  0  0  0  0
 33 39  2  0  0  0  0
 34 40  2  0  0  0  0
 35 41  1  0  0  0  0
 36 46  1  0  0  0  0
 37 42  1  0  0  0  0
 37 65  1  0  0  0  0
 38 44  1  0  0  0  0
 38 66  1  0  0  0  0
 39 43  1  0  0  0  0
 40 45  1  0  0  0  0
 41 47  2  0  0  0  0
 41 48  1  0  0  0  0
 42 43  2  0  0  0  0
 44 45  2  0  0  0  0
 46 49  2  0  0  0  0
 46 50  1  0  0  0  0
 47 52  1  0  0  0  0
 47 67  1  0  0  0  0
 48 51  2  0  0  0  0
 48 68  1  0  0  0  0
 49 55  1  0  0  0  0
 49 71  1  0  0  0  0
 50 54  2  0  0  0  0
 50 72  1  0  0  0  0
 51 53  1  0  0  0  0
 52 53  2  0  0  0  0
 54 56  1  0  0  0  0
 55 56  2  0  0  0  0
M  END
> <PUBCHEM_COMPOUND_CID>
101146656

> <PUBCHEM_COMPOUND_CANONICALIZED>
1

> <PUBCHEM_CACTVS_COMPLEXITY>
1420

> <PUBCHEM_CACTVS_HBOND_ACCEPTOR>
22

> <PUBCHEM_CACTVS_HBOND_DONOR>
13

> <PUBCHEM_CACTVS_ROTATABLE_BOND>
7

> <PUBCHEM_CACTVS_SUBSKEYS>
AAADceB8PgAAAAAAAAAAAAAAAAAAAAAAAAA0YMGCAAAAAACRVAAAGgAACAAADBSwmAMwDoAABgCIAiDSCAACAAAkIAAAiAEGiMgZNzKCNRqicQElwBUPuYfK7PzOoAABCAAYQABAAAIQADCAAAAAAAAAAA==

> <PUBCHEM_IUPAC_OPENEYE_NAME>
[(10R,11R,13R,14R,15S)-3,4,5,14,20,21,22-heptahydroxy-8,17-dioxo-11-(3,4,5-trihydroxybenzoyl)oxy-9,12,16-trioxatetracyclo[16.4.0.02,7.010,15]docosa-1(22),2,4,6,18,20-hexaen-13-yl]methyl 3,4,5-trihydroxybenzoate

> <PUBCHEM_IUPAC_CAS_NAME>
3,4,5-trihydroxybenzoic acid [(10R,11R,13R,14R,15S)-3,4,5,14,20,21,22-heptahydroxy-8,17-dioxo-11-[oxo-(3,4,5-trihydroxyphenyl)methoxy]-9,12,16-trioxatetracyclo[16.4.0.02,7.010,15]docosa-1(22),2,4,6,18,20-hexaen-13-yl]methyl ester

> <PUBCHEM_IUPAC_NAME_MARKUP>
[(10<I>R</I>,11<I>R</I>,13<I>R</I>,14<I>R</I>,15<I>S</I>)-3,4,5,14,20,21,22-heptahydroxy-8,17-dioxo-11-(3,4,5-trihydroxybenzoyl)oxy-9,12,16-trioxatetracyclo[16.4.0.0<SUP>2,7</SUP>.0<SUP>10,15</SUP>]docosa-1(22),2,4,6,18,20-hexaen-13-yl]methyl 3,4,5-trihydroxybenzoate

> <PUBCHEM_IUPAC_NAME>
[(10R,11R,13R,14R,15S)-3,4,5,14,20,21,22-heptahydroxy-8,17-dioxo-11-(3,4,5-trihydroxybenzoyl)oxy-9,12,16-trioxatetracyclo[16.4.0.02,7.010,15]docosa-1(22),2,4,6,18,20-hexaen-13-yl]methyl 3,4,5-trihydroxybenzoate

> <PUBCHEM_IUPAC_SYSTEMATIC_NAME>
[(10R,11R,13R,14R,15S)-3,4,5,14,20,21,22-heptakis(oxidanyl)-8,17-bis(oxidanylidene)-11-[3,4,5-tris(oxidanyl)phenyl]carbonyloxy-9,12,16-trioxatetracyclo[16.4.0.02,7.010,15]docosa-1(22),2,4,6,18,20-hexaen-13-yl]methyl 3,4,5-tris(oxidanyl)benzoate

> <PUBCHEM_IUPAC_TRADITIONAL_NAME>
3,4,5-trihydroxybenzoic acid [(10R,11R,13R,14R,15S)-11-galloyloxy-3,4,5,14,20,21,22-heptahydroxy-8,17-diketo-9,12,16-trioxatetracyclo[16.4.0.02,7.010,15]docosa-1(22),2,4,6,18,20-hexaen-13-yl]methyl ester

> <PUBCHEM_IUPAC_INCHI>
InChI=1S/C34H26O22/c35-12-1-8(2-13(36)21(12)41)30(48)52-7-18-25(45)28-29(34(53-18)56-31(49)9-3-14(37)22(42)15(38)4-9)55-33(51)11-6-17(40)24(44)27(47)20(11)19-10(32(50)54-28)5-16(39)23(43)26(19)46/h1-6,18,25,28-29,34-47H,7H2/t18-,25-,28+,29-,34-/m1/s1

> <PUBCHEM_IUPAC_INCHIKEY>
WKPZPHSGAOCQCK-ZBMKENLISA-N

> <PUBCHEM_XLOGP3_AA>
1.2

> <PUBCHEM_EXACT_MASS>
786.09157245

> <PUBCHEM_MOLECULAR_FORMULA>
C34H26O22

> <PUBCHEM_MOLECULAR_WEIGHT>
786.6

> <PUBCHEM_SMILES>
C1=C(C=C(C(=C1O)O)O)C(=O)OC[C@@H]2[C@H]([C@H]3[C@H]([C@H](O2)OC(=O)C4=CC(=C(C(=C4)O)O)O)OC(=O)C5=CC(=C(C(=C5C6=C(C(=C(C=C6C(=O)O3)O)O)O)O)O)O)O

> <PUBCHEM_CONNECTIVITY_SMILES>
C1=C(C=C(C(=C1O)O)O)C(=O)OCC2C(C3C(C(O2)OC(=O)C4=CC(=C(C(=C4)O)O)O)OC(=O)C5=CC(=C(C(=C5C6=C(C(=C(C=C6C(=O)O3)O)O)O)O)O)O)O

> <PUBCHEM_CACTVS_TPSA>
377

> <PUBCHEM_MONOISOTOPIC_WEIGHT>
786.09157245

> <PUBCHEM_TOTAL_CHARGE>
0

> <PUBCHEM_HEAVY_ATOM_COUNT>
56

> <PUBCHEM_ATOM_DEF_STEREO_COUNT>
5

> <PUBCHEM_ATOM_UDEF_STEREO_COUNT>
0

> <PUBCHEM_BOND_DEF_STEREO_COUNT>
0

> <PUBCHEM_BOND_UDEF_STEREO_COUNT>
0

> <PUBCHEM_ISOTOPIC_ATOM_COUNT>
0

> <PUBCHEM_COMPONENT_COUNT>
1

> <PUBCHEM_CACTVS_TAUTO_COUNT>
-1

> <PUBCHEM_COORDINATE_TYPE>
1
5
255

> <PUBCHEM_BONDANNOTATIONS>
23  57  5
25  59  6
26  28  6
31  33  8
31  37  8
32  34  8
32  38  8
33  39  8
34  40  8
37  42  8
38  44  8
39  43  8
24  4  5
40  45  8
41  47  8
41  48  8
42  43  8
44  45  8
46  49  8
46  50  8
47  52  8
48  51  8
49  55  8
27  5  5
50  54  8
51  53  8
52  53  8
54  56  8
55  56  8

$$$$
