129704175
  -OEChem-01202622402D

 25 24  0     1  0  0  0  0  0999 V2000
    4.5981   -0.8100    0.0000 S   0  0  3  0  0  0  0  0  0  0  0  0
    8.0622    1.1900    0.0000 S   0  0  0  0  0  0  0  0  0  0  0  0
    5.4641   -0.3100    0.0000 O   0  0  0  0  0  0  0  0  0  0  0  0
    6.3301   -1.8100    0.0000 O   0  0  0  0  0  0  0  0  0  0  0  0
    4.5981   -1.8100    0.0000 O   0  0  0  0  0  0  0  0  0  0  0  0
    8.0622   -0.8100    0.0000 N   0  0  0  0  0  0  0  0  0  0  0  0
    7.1962   -0.3100    0.0000 C   0  0  3  0  0  0  0  0  0  0  0  0
    3.7320   -0.3100    0.0000 C   0  0  0  0  0  0  0  0  0  0  0  0
    2.8660   -0.8100    0.0000 C   0  0  0  0  0  0  0  0  0  0  0  0
    7.1962    0.6900    0.0000 C   0  0  0  0  0  0  0  0  0  0  0  0
    6.3301   -0.8100    0.0000 C   0  0  0  0  0  0  0  0  0  0  0  0
    2.0000   -0.3100    0.0000 C   0  0  0  0  0  0  0  0  0  0  0  0
    7.7331    0.0000    0.0000 H   0  0  0  0  0  0  0  0  0  0  0  0
    4.1306    0.1649    0.0000 H   0  0  0  0  0  0  0  0  0  0  0  0
    3.3335    0.1649    0.0000 H   0  0  0  0  0  0  0  0  0  0  0  0
    2.4675   -1.2850    0.0000 H   0  0  0  0  0  0  0  0  0  0  0  0
    3.2646   -1.2850    0.0000 H   0  0  0  0  0  0  0  0  0  0  0  0
    6.9841    1.2726    0.0000 H   0  0  0  0  0  0  0  0  0  0  0  0
    6.5856    0.5823    0.0000 H   0  0  0  0  0  0  0  0  0  0  0  0
    2.3100    0.2269    0.0000 H   0  0  0  0  0  0  0  0  0  0  0  0
    1.4631   -0.0000    0.0000 H   0  0  0  0  0  0  0  0  0  0  0  0
    1.6900   -0.8469    0.0000 H   0  0  0  0  0  0  0  0  0  0  0  0
    8.5991   -0.5000    0.0000 H   0  0  0  0  0  0  0  0  0  0  0  0
    8.0622   -1.4300    0.0000 H   0  0  0  0  0  0  0  0  0  0  0  0
    8.0622    1.8100    0.0000 H   0  0  0  0  0  0  0  0  0  0  0  0
  1  3  1  0  0  0  0
  1  5  2  0  0  0  0
  1  8  1  0  0  0  0
  2 10  1  0  0  0  0
  2 25  1  0  0  0  0
  3 11  1  0  0  0  0
  4 11  2  0  0  0  0
  6  7  1  0  0  0  0
  6 23  1  0  0  0  0
  6 24  1  0  0  0  0
  7 10  1  0  0  0  0
  7 11  1  0  0  0  0
  7 13  1  0  0  0  0
  8  9  1  0  0  0  0
  8 14  1  0  0  0  0
  8 15  1  0  0  0  0
  9 12  1  0  0  0  0
  9 16  1  0  0  0  0
  9 17  1  0  0  0  0
 10 18  1  0  0  0  0
 10 19  1  0  0  0  0
 12 20  1  0  0  0  0
 12 21  1  0  0  0  0
 12 22  1  0  0  0  0
M  END
> <PUBCHEM_COMPOUND_CID>
129704175

> <PUBCHEM_COMPOUND_CANONICALIZED>
1

> <PUBCHEM_CACTVS_COMPLEXITY>
174

> <PUBCHEM_CACTVS_HBOND_ACCEPTOR>
6

> <PUBCHEM_CACTVS_HBOND_DONOR>
2

> <PUBCHEM_CACTVS_ROTATABLE_BOND>
6

> <PUBCHEM_CACTVS_SUBSKEYS>
AAADccBiMABgAAAAAAAAAAAAAAAAAAAAAAAAAAAAAAAAAAAAAAAAHgQQAAAACCjFwASCCABAAAYIAACQCGBAAAAAAAAAAIGAAAACAAAAAAAAAAAAEAAAAAAAAAAAAAAAAAAAAAAAAAAAAAAAAAAAAAAAAA==

> <PUBCHEM_IUPAC_OPENEYE_NAME>
propylsulfinyl 2-amino-3-sulfanyl-propanoate

> <PUBCHEM_IUPAC_CAS_NAME>
2-amino-3-mercaptopropanoic acid propylsulfinyl ester

> <PUBCHEM_IUPAC_NAME_MARKUP>
propylsulfinyl 2-amino-3-sulfanylpropanoate

> <PUBCHEM_IUPAC_NAME>
propylsulfinyl 2-amino-3-sulfanylpropanoate

> <PUBCHEM_IUPAC_SYSTEMATIC_NAME>
propylsulfinyl 2-azanyl-3-sulfanyl-propanoate

> <PUBCHEM_IUPAC_TRADITIONAL_NAME>
2-amino-3-mercapto-propionic acid propylsulfinyl ester

> <PUBCHEM_IUPAC_INCHI>
InChI=1S/C6H13NO3S2/c1-2-3-12(9)10-6(8)5(7)4-11/h5,11H,2-4,7H2,1H3

> <PUBCHEM_IUPAC_INCHIKEY>
YDSATIYWJAEGQV-UHFFFAOYSA-N

> <PUBCHEM_XLOGP3_AA>
-0.2

> <PUBCHEM_EXACT_MASS>
211.03368562

> <PUBCHEM_MOLECULAR_FORMULA>
C6H13NO3S2

> <PUBCHEM_MOLECULAR_WEIGHT>
211.3

> <PUBCHEM_SMILES>
CCCS(=O)OC(=O)C(CS)N

> <PUBCHEM_CONNECTIVITY_SMILES>
CCCS(=O)OC(=O)C(CS)N

> <PUBCHEM_CACTVS_TPSA>
89.6

> <PUBCHEM_MONOISOTOPIC_WEIGHT>
211.03368562

> <PUBCHEM_TOTAL_CHARGE>
0

> <PUBCHEM_HEAVY_ATOM_COUNT>
12

> <PUBCHEM_ATOM_DEF_STEREO_COUNT>
0

> <PUBCHEM_ATOM_UDEF_STEREO_COUNT>
2

> <PUBCHEM_BOND_DEF_STEREO_COUNT>
0

> <PUBCHEM_BOND_UDEF_STEREO_COUNT>
0

> <PUBCHEM_ISOTOPIC_ATOM_COUNT>
0

> <PUBCHEM_COMPONENT_COUNT>
1

> <PUBCHEM_CACTVS_TAUTO_COUNT>
-1

> <PUBCHEM_COORDINATE_TYPE>
1
5
255

> <PUBCHEM_BONDANNOTATIONS>
1  8  3
7  6  3

$$$$
