14754405
  -OEChem-01202622382D

 60 65  0     0  0  0  0  0  0999 V2000
    8.3332   -0.4136    0.0000 O   0  0  0  0  0  0  0  0  0  0  0  0
    4.8012    0.6072    0.0000 O   0  0  0  0  0  0  0  0  0  0  0  0
    8.2389   -2.4459    0.0000 O   0  0  0  0  0  0  0  0  0  0  0  0
    4.7962    2.5925    0.0000 O   0  0  0  0  0  0  0  0  0  0  0  0
    7.0009   -3.2676    0.0000 O   0  0  0  0  0  0  0  0  0  0  0  0
    6.4983    3.6062    0.0000 O   0  0  0  0  0  0  0  0  0  0  0  0
    9.2012    0.1314    0.0000 O   0  0  0  0  0  0  0  0  0  0  0  0
    3.9351   -0.8928    0.0000 O   0  0  0  0  0  0  0  0  0  0  0  0
    7.3254    4.1318    0.0000 O   0  0  0  0  0  0  0  0  0  0  0  0
    3.6990   -1.5226    0.0000 O   0  0  0  0  0  0  0  0  0  0  0  0
    9.0246    5.1867    0.0000 O   0  0  0  0  0  0  0  0  0  0  0  0
    2.4021   -3.0452    0.0000 O   0  0  0  0  0  0  0  0  0  0  0  0
   10.7877    4.2426    0.0000 O   0  0  0  0  0  0  0  0  0  0  0  0
    3.0722   -4.9295    0.0000 O   0  0  0  0  0  0  0  0  0  0  0  0
   10.8517    2.2436    0.0000 O   0  0  0  0  0  0  0  0  0  0  0  0
    5.9330   -5.2199    0.0000 O   0  0  0  0  0  0  0  0  0  0  0  0
   10.0341    0.7167    0.0000 O   0  0  0  0  0  0  0  0  0  0  0  0
    7.0560   -3.9013    0.0000 O   0  0  0  0  0  0  0  0  0  0  0  0
    6.5332   -0.3928    0.0000 C   0  0  0  0  0  0  0  0  0  0  0  0
    6.5332    0.6072    0.0000 C   0  0  0  0  0  0  0  0  0  0  0  0
    5.6672   -0.8928    0.0000 C   0  0  0  0  0  0  0  0  0  0  0  0
    7.4272    1.1419    0.0000 C   0  0  0  0  0  0  0  0  0  0  0  0
    7.4272   -0.9275    0.0000 C   0  0  0  0  0  0  0  0  0  0  0  0
    5.6672    1.1072    0.0000 C   0  0  0  0  0  0  0  0  0  0  0  0
    5.6659   -1.8845    0.0000 C   0  0  0  0  0  0  0  0  0  0  0  0
    7.3894    2.1329    0.0000 C   0  0  0  0  0  0  0  0  0  0  0  0
    7.3894   -1.9184    0.0000 C   0  0  0  0  0  0  0  0  0  0  0  0
    5.6659    2.0989    0.0000 C   0  0  0  0  0  0  0  0  0  0  0  0
    6.5180   -2.3919    0.0000 C   0  0  0  0  0  0  0  0  0  0  0  0
    6.5180    2.6064    0.0000 C   0  0  0  0  0  0  0  0  0  0  0  0
    8.3332    0.6280    0.0000 C   0  0  0  0  0  0  0  0  0  0  0  0
    4.8012   -0.3928    0.0000 C   0  0  0  0  0  0  0  0  0  0  0  0
    5.0175   -2.6457    0.0000 C   0  0  0  0  0  0  0  0  0  0  0  0
    8.2389    2.6603    0.0000 C   0  0  0  0  0  0  0  0  0  0  0  0
    5.3526   -3.5880    0.0000 C   0  0  0  0  0  0  0  0  0  0  0  0
    9.1205    2.1882    0.0000 C   0  0  0  0  0  0  0  0  0  0  0  0
    8.2070    3.6598    0.0000 C   0  0  0  0  0  0  0  0  0  0  0  0
    4.0340   -2.4648    0.0000 C   0  0  0  0  0  0  0  0  0  0  0  0
    4.7041   -4.3492    0.0000 C   0  0  0  0  0  0  0  0  0  0  0  0
    9.9701    2.7157    0.0000 C   0  0  0  0  0  0  0  0  0  0  0  0
    9.0566    4.1872    0.0000 C   0  0  0  0  0  0  0  0  0  0  0  0
    3.3855   -3.2260    0.0000 C   0  0  0  0  0  0  0  0  0  0  0  0
    9.9381    3.7152    0.0000 C   0  0  0  0  0  0  0  0  0  0  0  0
    3.7206   -4.1683    0.0000 C   0  0  0  0  0  0  0  0  0  0  0  0
   10.0021    1.7162    0.0000 C   0  0  0  0  0  0  0  0  0  0  0  0
    6.1139   -4.2364    0.0000 C   0  0  0  0  0  0  0  0  0  0  0  0
    4.9119   -4.9334    0.0000 H   0  0  0  0  0  0  0  0  0  0  0  0
   10.5167    2.4230    0.0000 H   0  0  0  0  0  0  0  0  0  0  0  0
    8.7855   -2.1532    0.0000 H   0  0  0  0  0  0  0  0  0  0  0  0
    4.2616    2.2785    0.0000 H   0  0  0  0  0  0  0  0  0  0  0  0
    7.6207   -3.2799    0.0000 H   0  0  0  0  0  0  0  0  0  0  0  0
    5.9554    3.9055    0.0000 H   0  0  0  0  0  0  0  0  0  0  0  0
    7.3056    4.7515    0.0000 H   0  0  0  0  0  0  0  0  0  0  0  0
    3.0892   -1.4105    0.0000 H   0  0  0  0  0  0  0  0  0  0  0  0
    9.5513    5.5137    0.0000 H   0  0  0  0  0  0  0  0  0  0  0  0
    2.0000   -3.5171    0.0000 H   0  0  0  0  0  0  0  0  0  0  0  0
   11.3343    3.9499    0.0000 H   0  0  0  0  0  0  0  0  0  0  0  0
    3.2799   -5.5137    0.0000 H   0  0  0  0  0  0  0  0  0  0  0  0
   10.8319    2.8633    0.0000 H   0  0  0  0  0  0  0  0  0  0  0  0
    5.3488   -5.4276    0.0000 H   0  0  0  0  0  0  0  0  0  0  0  0
  1 23  1  0  0  0  0
  1 31  1  0  0  0  0
  2 24  1  0  0  0  0
  2 32  1  0  0  0  0
  3 27  1  0  0  0  0
  3 49  1  0  0  0  0
  4 28  1  0  0  0  0
  4 50  1  0  0  0  0
  5 29  1  0  0  0  0
  5 51  1  0  0  0  0
  6 30  1  0  0  0  0
  6 52  1  0  0  0  0
  7 31  2  0  0  0  0
  8 32  2  0  0  0  0
  9 37  1  0  0  0  0
  9 53  1  0  0  0  0
 10 38  1  0  0  0  0
 10 54  1  0  0  0  0
 11 41  1  0  0  0  0
 11 55  1  0  0  0  0
 12 42  1  0  0  0  0
 12 56  1  0  0  0  0
 13 43  1  0  0  0  0
 13 57  1  0  0  0  0
 14 44  1  0  0  0  0
 14 58  1  0  0  0  0
 15 45  1  0  0  0  0
 15 59  1  0  0  0  0
 16 46  1  0  0  0  0
 16 60  1  0  0  0  0
 17 45  2  0  0  0  0
 18 46  2  0  0  0  0
 19 20  1  0  0  0  0
 19 21  2  0  0  0  0
 19 23  1  0  0  0  0
 20 22  2  0  0  0  0
 20 24  1  0  0  0  0
 21 25  1  0  0  0  0
 21 32  1  0  0  0  0
 22 26  1  0  0  0  0
 22 31  1  0  0  0  0
 23 27  2  0  0  0  0
 24 28  2  0  0  0  0
 25 29  2  0  0  0  0
 25 33  1  0  0  0  0
 26 30  2  0  0  0  0
 26 34  1  0  0  0  0
 27 29  1  0  0  0  0
 28 30  1  0  0  0  0
 33 35  1  0  0  0  0
 33 38  2  0  0  0  0
 34 36  1  0  0  0  0
 34 37  2  0  0  0  0
 35 39  2  0  0  0  0
 35 46  1  0  0  0  0
 36 40  2  0  0  0  0
 36 45  1  0  0  0  0
 37 41  1  0  0  0  0
 38 42  1  0  0  0  0
 39 44  1  0  0  0  0
 39 47  1  0  0  0  0
 40 43  1  0  0  0  0
 40 48  1  0  0  0  0
 41 43  2  0  0  0  0
 42 44  2  0  0  0  0
M  END
> <PUBCHEM_COMPOUND_CID>
14754405

> <PUBCHEM_COMPOUND_CANONICALIZED>
1

> <PUBCHEM_CACTVS_COMPLEXITY>
1170

> <PUBCHEM_CACTVS_HBOND_ACCEPTOR>
18

> <PUBCHEM_CACTVS_HBOND_DONOR>
12

> <PUBCHEM_CACTVS_ROTATABLE_BOND>
4

> <PUBCHEM_CACTVS_SUBSKEYS>
AAADccB4PgAAAAAAAAAAAAAAAAAAAAAAAAA0aMGCAAAAAACRVAAAGgAACAAADASAmAAwDoAABgCIAiDSCAACCAAkIAAAiAEGiMgNJzKGNBqCeyOlwBULuYfK7PzOoAADCAAYQABAAAYQADCAAAAAAAAAAA==

> <PUBCHEM_IUPAC_OPENEYE_NAME>
2-[12-(6-carboxy-2,3,4-trihydroxy-phenyl)-6,7,13,14-tetrahydroxy-3,10-dioxo-2,9-dioxatetracyclo[6.6.2.04,16.011,15]hexadeca-1(14),4(16),5,7,11(15),12-hexaen-5-yl]-3,4,5-trihydroxy-benzoic acid

> <PUBCHEM_IUPAC_CAS_NAME>
2-[12-(6-carboxy-2,3,4-trihydroxyphenyl)-6,7,13,14-tetrahydroxy-3,10-dioxo-2,9-dioxatetracyclo[6.6.2.04,16.011,15]hexadeca-1(14),4(16),5,7,11(15),12-hexaen-5-yl]-3,4,5-trihydroxybenzoic acid

> <PUBCHEM_IUPAC_NAME_MARKUP>
2-[12-(6-carboxy-2,3,4-trihydroxyphenyl)-6,7,13,14-tetrahydroxy-3,10-dioxo-2,9-dioxatetracyclo[6.6.2.0<SUP>4,16</SUP>.0<SUP>11,15</SUP>]hexadeca-1(14),4(16),5,7,11(15),12-hexaen-5-yl]-3,4,5-trihydroxybenzoic acid

> <PUBCHEM_IUPAC_NAME>
2-[12-(6-carboxy-2,3,4-trihydroxyphenyl)-6,7,13,14-tetrahydroxy-3,10-dioxo-2,9-dioxatetracyclo[6.6.2.04,16.011,15]hexadeca-1(14),4(16),5,7,11(15),12-hexaen-5-yl]-3,4,5-trihydroxybenzoic acid

> <PUBCHEM_IUPAC_SYSTEMATIC_NAME>
2-[12-[6-carboxy-2,3,4-tris(oxidanyl)phenyl]-6,7,13,14-tetrakis(oxidanyl)-3,10-bis(oxidanylidene)-2,9-dioxatetracyclo[6.6.2.04,16.011,15]hexadeca-1(14),4(16),5,7,11(15),12-hexaen-5-yl]-3,4,5-tris(oxidanyl)benzoic acid

> <PUBCHEM_IUPAC_TRADITIONAL_NAME>
2-[12-(6-carboxy-2,3,4-trihydroxy-phenyl)-6,7,13,14-tetrahydroxy-3,10-diketo-2,9-dioxatetracyclo[6.6.2.04,16.011,15]hexadeca-1(14),4(16),5,7,11(15),12-hexaen-5-yl]-3,4,5-trihydroxy-benzoic acid

> <PUBCHEM_IUPAC_INCHI>
InChI=1S/C28H14O18/c29-5-1-3(25(39)40)7(17(33)15(5)31)9-13-11-12-14(28(44)46-23(11)21(37)19(9)35)10(20(36)22(38)24(12)45-27(13)43)8-4(26(41)42)2-6(30)16(32)18(8)34/h1-2,29-38H,(H,39,40)(H,41,42)

> <PUBCHEM_IUPAC_INCHIKEY>
ZASJRRFAYSNSHU-UHFFFAOYSA-N

> <PUBCHEM_XLOGP3_AA>
1.3

> <PUBCHEM_EXACT_MASS>
638.01801359

> <PUBCHEM_MOLECULAR_FORMULA>
C28H14O18

> <PUBCHEM_MOLECULAR_WEIGHT>
638.4

> <PUBCHEM_SMILES>
C1=C(C(=C(C(=C1O)O)O)C2=C(C(=C3C4=C2C(=O)OC5=C(C(=C(C(=C45)C(=O)O3)C6=C(C(=C(C=C6C(=O)O)O)O)O)O)O)O)O)C(=O)O

> <PUBCHEM_CONNECTIVITY_SMILES>
C1=C(C(=C(C(=C1O)O)O)C2=C(C(=C3C4=C2C(=O)OC5=C(C(=C(C(=C45)C(=O)O3)C6=C(C(=C(C=C6C(=O)O)O)O)O)O)O)O)O)C(=O)O

> <PUBCHEM_CACTVS_TPSA>
330

> <PUBCHEM_MONOISOTOPIC_WEIGHT>
638.01801359

> <PUBCHEM_TOTAL_CHARGE>
0

> <PUBCHEM_HEAVY_ATOM_COUNT>
46

> <PUBCHEM_ATOM_DEF_STEREO_COUNT>
0

> <PUBCHEM_ATOM_UDEF_STEREO_COUNT>
0

> <PUBCHEM_BOND_DEF_STEREO_COUNT>
0

> <PUBCHEM_BOND_UDEF_STEREO_COUNT>
0

> <PUBCHEM_ISOTOPIC_ATOM_COUNT>
0

> <PUBCHEM_COMPONENT_COUNT>
1

> <PUBCHEM_CACTVS_TAUTO_COUNT>
-1

> <PUBCHEM_COORDINATE_TYPE>
1
5
255

> <PUBCHEM_BONDANNOTATIONS>
1  23  8
1  31  8
19  20  8
19  21  8
19  23  8
2  24  8
2  32  8
20  22  8
20  24  8
21  25  8
21  32  8
22  26  8
22  31  8
23  27  8
24  28  8
25  29  8
26  30  8
27  29  8
28  30  8
33  35  8
33  38  8
34  36  8
34  37  8
35  39  8
36  40  8
37  41  8
38  42  8
39  44  8
40  43  8
41  43  8
42  44  8

$$$$
