16129719
  -OEChem-01202613582D

106115  0     1  0  0  0  0  0999 V2000
    9.2254   -0.0228    0.0000 O   0  0  0  0  0  0  0  0  0  0  0  0
    7.8233   -2.1430    0.0000 O   0  0  0  0  0  0  0  0  0  0  0  0
    8.2209    5.7306    0.0000 O   0  0  0  0  0  0  0  0  0  0  0  0
    7.3390    2.1613    0.0000 O   0  0  0  0  0  0  0  0  0  0  0  0
    9.7524   -2.6707    0.0000 O   0  0  0  0  0  0  0  0  0  0  0  0
    7.1183   -1.5376    0.0000 O   0  0  0  0  0  0  0  0  0  0  0  0
    5.4251    0.4291    0.0000 O   0  0  0  0  0  0  0  0  0  0  0  0
   10.8356    2.2614    0.0000 O   0  0  0  0  0  0  0  0  0  0  0  0
    9.1461    1.2269    0.0000 O   0  0  0  0  0  0  0  0  0  0  0  0
    4.7752    5.7603    0.0000 O   0  0  0  0  0  0  0  0  0  0  0  0
    6.5041    6.7275    0.0000 O   0  0  0  0  0  0  0  0  0  0  0  0
    9.9530    5.7306    0.0000 O   0  0  0  0  0  0  0  0  0  0  0  0
    5.5689    2.1855    0.0000 O   0  0  0  0  0  0  0  0  0  0  0  0
   10.7851    0.2067    0.0000 O   0  0  0  0  0  0  0  0  0  0  0  0
   11.2127    4.2299    0.0000 O   0  0  0  0  0  0  0  0  0  0  0  0
    4.4905    5.0292    0.0000 O   0  0  0  0  0  0  0  0  0  0  0  0
   11.1740   -1.2640    0.0000 O   0  0  0  0  0  0  0  0  0  0  0  0
    7.3663   -3.8136    0.0000 O   0  0  0  0  0  0  0  0  0  0  0  0
   12.9068    3.2190    0.0000 O   0  0  0  0  0  0  0  0  0  0  0  0
    3.9627    1.0179    0.0000 O   0  0  0  0  0  0  0  0  0  0  0  0
   12.9028    1.2462    0.0000 O   0  0  0  0  0  0  0  0  0  0  0  0
    2.6065    4.4438    0.0000 O   0  0  0  0  0  0  0  0  0  0  0  0
   11.4278   -2.2312    0.0000 O   0  0  0  0  0  0  0  0  0  0  0  0
    2.1479    2.5250    0.0000 O   0  0  0  0  0  0  0  0  0  0  0  0
    8.7168   -6.4870    0.0000 O   0  0  0  0  0  0  0  0  0  0  0  0
    9.7898   -6.3119    0.0000 O   0  0  0  0  0  0  0  0  0  0  0  0
    5.5297   -3.4772    0.0000 O   0  0  0  0  0  0  0  0  0  0  0  0
    6.1851   -5.9755    0.0000 O   0  0  0  0  0  0  0  0  0  0  0  0
   11.7613   -6.8676    0.0000 O   0  0  0  0  0  0  0  0  0  0  0  0
   13.2172   -5.4269    0.0000 O   0  0  0  0  0  0  0  0  0  0  0  0
    8.2804   -0.4723    0.0000 C   0  0  3  0  0  0  0  0  0  0  0  0
    8.5341   -1.4396    0.0000 C   0  0  3  0  0  0  0  0  0  0  0  0
    7.2363   -0.5446    0.0000 C   0  0  3  0  0  0  0  0  0  0  0  0
    8.2209    3.7306    0.0000 C   0  0  0  0  0  0  0  0  0  0  0  0
    7.3549    4.2306    0.0000 C   0  0  0  0  0  0  0  0  0  0  0  0
    9.4987   -1.7035    0.0000 C   0  0  3  0  0  0  0  0  0  0  0  0
    9.0870    4.2306    0.0000 C   0  0  0  0  0  0  0  0  0  0  0  0
    6.4449    3.7238    0.0000 C   0  0  0  0  0  0  0  0  0  0  0  0
    9.9464    3.7358    0.0000 C   0  0  0  0  0  0  0  0  0  0  0  0
    8.2370    2.6891    0.0000 C   0  0  0  0  0  0  0  0  0  0  0  0
    5.6056    4.2520    0.0000 C   0  0  0  0  0  0  0  0  0  0  0  0
    7.3549    5.2306    0.0000 C   0  0  0  0  0  0  0  0  0  0  0  0
    6.2384   -0.2295    0.0000 C   0  0  0  0  0  0  0  0  0  0  0  0
   10.3276    2.7612    0.0000 C   0  0  0  0  0  0  0  0  0  0  0  0
    9.9599    2.7442    0.0000 C   0  0  0  0  0  0  0  0  0  0  0  0
    5.0065    3.3939    0.0000 C   0  0  0  0  0  0  0  0  0  0  0  0
    9.1141    2.2263    0.0000 C   0  0  0  0  0  0  0  0  0  0  0  0
   10.3255    1.7147    0.0000 C   0  0  0  0  0  0  0  0  0  0  0  0
    5.6312    5.2434    0.0000 C   0  0  0  0  0  0  0  0  0  0  0  0
    6.4967    5.7275    0.0000 C   0  0  0  0  0  0  0  0  0  0  0  0
    9.0870    5.2306    0.0000 C   0  0  0  0  0  0  0  0  0  0  0  0
    6.4369    2.6822    0.0000 C   0  0  0  0  0  0  0  0  0  0  0  0
    9.9402    0.7416    0.0000 C   0  0  0  0  0  0  0  0  0  0  0  0
    4.7632    2.3761    0.0000 C   0  0  0  0  0  0  0  0  0  0  0  0
   11.1922    3.2301    0.0000 C   0  0  0  0  0  0  0  0  0  0  0  0
   10.2095   -1.0001    0.0000 C   0  0  0  0  0  0  0  0  0  0  0  0
    8.0771   -3.1102    0.0000 C   0  0  0  0  0  0  0  0  0  0  0  0
    4.2760    4.0525    0.0000 C   0  0  0  0  0  0  0  0  0  0  0  0
   11.1880    1.2422    0.0000 C   0  0  0  0  0  0  0  0  0  0  0  0
    4.9095    1.3398    0.0000 C   0  0  0  0  0  0  0  0  0  0  0  0
    9.0416   -3.3741    0.0000 C   0  0  0  0  0  0  0  0  0  0  0  0
    9.2954   -4.3414    0.0000 C   0  0  0  0  0  0  0  0  0  0  0  0
   12.0367    2.7262    0.0000 C   0  0  0  0  0  0  0  0  0  0  0  0
   10.2599   -4.6053    0.0000 C   0  0  0  0  0  0  0  0  0  0  0  0
   10.7170   -2.9346    0.0000 C   0  0  0  0  0  0  0  0  0  0  0  0
   10.9707   -3.9019    0.0000 C   0  0  0  0  0  0  0  0  0  0  0  0
    3.8138    2.1191    0.0000 C   0  0  0  0  0  0  0  0  0  0  0  0
   12.0347    1.7427    0.0000 C   0  0  0  0  0  0  0  0  0  0  0  0
    3.3368    3.7606    0.0000 C   0  0  0  0  0  0  0  0  0  0  0  0
    3.1081    2.8041    0.0000 C   0  0  0  0  0  0  0  0  0  0  0  0
    7.6387   -2.7769    0.0000 C   0  0  0  0  0  0  0  0  0  0  0  0
    8.3663   -5.5504    0.0000 C   0  0  0  0  0  0  0  0  0  0  0  0
   10.5087   -5.6168    0.0000 C   0  0  0  0  0  0  0  0  0  0  0  0
   11.9796   -4.1612    0.0000 C   0  0  0  0  0  0  0  0  0  0  0  0
    6.4848   -3.7736    0.0000 C   0  0  0  0  0  0  0  0  0  0  0  0
    6.8717   -5.2485    0.0000 C   0  0  0  0  0  0  0  0  0  0  0  0
   11.5112   -5.8994    0.0000 C   0  0  0  0  0  0  0  0  0  0  0  0
   12.2516   -5.1667    0.0000 C   0  0  0  0  0  0  0  0  0  0  0  0
    8.8426   -0.7337    0.0000 H   0  0  0  0  0  0  0  0  0  0  0  0
    8.9748   -1.0035    0.0000 H   0  0  0  0  0  0  0  0  0  0  0  0
    6.7155   -0.8809    0.0000 H   0  0  0  0  0  0  0  0  0  0  0  0
   10.0967   -1.8671    0.0000 H   0  0  0  0  0  0  0  0  0  0  0  0
    5.6917   -0.5221    0.0000 H   0  0  0  0  0  0  0  0  0  0  0  0
    6.5319    0.3166    0.0000 H   0  0  0  0  0  0  0  0  0  0  0  0
   10.0522   -0.4004    0.0000 H   0  0  0  0  0  0  0  0  0  0  0  0
    6.5485   -1.7820    0.0000 H   0  0  0  0  0  0  0  0  0  0  0  0
   11.1982    0.6223    0.0000 H   0  0  0  0  0  0  0  0  0  0  0  0
    3.6586    1.5188    0.0000 H   0  0  0  0  0  0  0  0  0  0  0  0
   11.3663    2.5819    0.0000 H   0  0  0  0  0  0  0  0  0  0  0  0
    8.6193    0.8998    0.0000 H   0  0  0  0  0  0  0  0  0  0  0  0
    4.7874    6.3802    0.0000 H   0  0  0  0  0  0  0  0  0  0  0  0
    7.0433    7.0335    0.0000 H   0  0  0  0  0  0  0  0  0  0  0  0
    7.5430   -2.1643    0.0000 H   0  0  0  0  0  0  0  0  0  0  0  0
   12.4152   -3.7201    0.0000 H   0  0  0  0  0  0  0  0  0  0  0  0
   11.7558    4.5288    0.0000 H   0  0  0  0  0  0  0  0  0  0  0  0
    4.0326    5.4472    0.0000 H   0  0  0  0  0  0  0  0  0  0  0  0
   13.4412    2.9046    0.0000 H   0  0  0  0  0  0  0  0  0  0  0  0
   12.9053    0.6262    0.0000 H   0  0  0  0  0  0  0  0  0  0  0  0
    2.0133    4.2635    0.0000 H   0  0  0  0  0  0  0  0  0  0  0  0
    2.0000    1.9229    0.0000 H   0  0  0  0  0  0  0  0  0  0  0  0
    8.3226   -6.9655    0.0000 H   0  0  0  0  0  0  0  0  0  0  0  0
    9.9402   -6.9134    0.0000 H   0  0  0  0  0  0  0  0  0  0  0  0
    5.0745   -3.8982    0.0000 H   0  0  0  0  0  0  0  0  0  0  0  0
    5.5819   -5.8322    0.0000 H   0  0  0  0  0  0  0  0  0  0  0  0
   12.3586   -7.0335    0.0000 H   0  0  0  0  0  0  0  0  0  0  0  0
   13.6562   -4.9891    0.0000 H   0  0  0  0  0  0  0  0  0  0  0  0
  1 31  1  0  0  0  0
  1 53  1  0  0  0  0
  2 32  1  0  0  0  0
  2 57  1  0  0  0  0
  3 42  1  0  0  0  0
  3 51  1  0  0  0  0
  4 40  1  0  0  0  0
  4 52  1  0  0  0  0
  5 36  1  0  0  0  0
  5 65  1  0  0  0  0
  6 33  1  0  0  0  0
  6 86  1  0  0  0  0
  7 43  1  0  0  0  0
  7 60  1  0  0  0  0
  8 45  1  0  0  0  0
  8 89  1  0  0  0  0
  9 47  1  0  0  0  0
  9 90  1  0  0  0  0
 10 49  1  0  0  0  0
 10 91  1  0  0  0  0
 11 50  1  0  0  0  0
 11 92  1  0  0  0  0
 12 51  2  0  0  0  0
 13 52  2  0  0  0  0
 14 53  2  0  0  0  0
 15 55  1  0  0  0  0
 15 95  1  0  0  0  0
 16 58  1  0  0  0  0
 16 96  1  0  0  0  0
 17 56  2  0  0  0  0
 18 57  2  0  0  0  0
 19 63  1  0  0  0  0
 19 97  1  0  0  0  0
 20 60  2  0  0  0  0
 21 68  1  0  0  0  0
 21 98  1  0  0  0  0
 22 69  1  0  0  0  0
 22 99  1  0  0  0  0
 23 65  2  0  0  0  0
 24 70  1  0  0  0  0
 24100  1  0  0  0  0
 25 72  1  0  0  0  0
 25101  1  0  0  0  0
 26 73  1  0  0  0  0
 26102  1  0  0  0  0
 27 75  1  0  0  0  0
 27103  1  0  0  0  0
 28 76  1  0  0  0  0
 28104  1  0  0  0  0
 29 77  1  0  0  0  0
 29105  1  0  0  0  0
 30 78  1  0  0  0  0
 30106  1  0  0  0  0
 31 32  1  0  0  0  0
 31 33  1  0  0  0  0
 31 79  1  0  0  0  0
 32 36  1  0  0  0  0
 32 80  1  0  0  0  0
 33 43  1  0  0  0  0
 33 81  1  0  0  0  0
 34 35  1  0  0  0  0
 34 37  2  0  0  0  0
 34 40  1  0  0  0  0
 35 38  2  0  0  0  0
 35 42  1  0  0  0  0
 36 56  1  0  0  0  0
 36 82  1  0  0  0  0
 37 39  1  0  0  0  0
 37 51  1  0  0  0  0
 38 41  1  0  0  0  0
 38 52  1  0  0  0  0
 39 44  1  0  0  0  0
 39 45  2  0  0  0  0
 40 47  2  0  0  0  0
 41 46  1  0  0  0  0
 41 49  2  0  0  0  0
 42 50  2  0  0  0  0
 43 83  1  0  0  0  0
 43 84  1  0  0  0  0
 44 48  1  0  0  0  0
 44 55  2  0  0  0  0
 45 47  1  0  0  0  0
 46 54  1  0  0  0  0
 46 58  2  0  0  0  0
 48 53  1  0  0  0  0
 48 59  2  0  0  0  0
 49 50  1  0  0  0  0
 54 60  1  0  0  0  0
 54 67  2  0  0  0  0
 55 63  1  0  0  0  0
 56 85  1  0  0  0  0
 57 61  1  0  0  0  0
 58 69  1  0  0  0  0
 59 68  1  0  0  0  0
 59 87  1  0  0  0  0
 61 62  1  0  0  0  0
 61 71  2  0  0  0  0
 62 64  1  0  0  0  0
 62 72  2  0  0  0  0
 63 68  2  0  0  0  0
 64 66  1  0  0  0  0
 64 73  2  0  0  0  0
 65 66  1  0  0  0  0
 66 74  2  0  0  0  0
 67 70  1  0  0  0  0
 67 88  1  0  0  0  0
 69 70  2  0  0  0  0
 71 75  1  0  0  0  0
 71 93  1  0  0  0  0
 72 76  1  0  0  0  0
 73 77  1  0  0  0  0
 74 78  1  0  0  0  0
 74 94  1  0  0  0  0
 75 76  2  0  0  0  0
 77 78  2  0  0  0  0
M  END
> <PUBCHEM_COMPOUND_CID>
16129719

> <PUBCHEM_COMPOUND_CANONICALIZED>
1

> <PUBCHEM_CACTVS_COMPLEXITY>
2360

> <PUBCHEM_CACTVS_HBOND_ACCEPTOR>
30

> <PUBCHEM_CACTVS_HBOND_DONOR>
17

> <PUBCHEM_CACTVS_ROTATABLE_BOND>
2

> <PUBCHEM_CACTVS_SUBSKEYS>
AAADceB8PgAAAAAAAAAAAAAAAAAAAAAAAAA0aMGDAAAAAACRVAAAGgAACAAADBSgmAIwDoAABgCIAijSiAICCAAkIAAAiAFGiMgNNzaGNB6CeyOl4BULuYfK7PzOoAADCAAYQABAAAYQADCAAAAAAAAAAA==

> <PUBCHEM_IUPAC_OPENEYE_NAME>
3,4,5,16,17,18-hexahydroxy-8,13-dioxo-11-(3,4,5,11,17,18,19,22,23,34,35-undecahydroxy-8,14,26,31-tetraoxo-9,13,25,32-tetraoxaheptacyclo[25.8.0.02,7.015,20.021,30.024,29.028,33]pentatriaconta-1(35),2,4,6,15,17,19,21,23,27,29,33-dodecaen-10-yl)-9,12-dioxatricyclo[12.4.0.02,7]octadeca-1(18),2,4,6,14,16-hexaene-10-carbaldehyde

> <PUBCHEM_IUPAC_CAS_NAME>
3,4,5,16,17,18-hexahydroxy-8,13-dioxo-11-(3,4,5,11,17,18,19,22,23,34,35-undecahydroxy-8,14,26,31-tetraoxo-9,13,25,32-tetraoxaheptacyclo[25.8.0.02,7.015,20.021,30.024,29.028,33]pentatriaconta-1(35),2,4,6,15,17,19,21,23,27,29,33-dodecaen-10-yl)-9,12-dioxatricyclo[12.4.0.02,7]octadeca-1(18),2,4,6,14,16-hexaene-10-carboxaldehyde

> <PUBCHEM_IUPAC_NAME_MARKUP>
3,4,5,16,17,18-hexahydroxy-8,13-dioxo-11-(3,4,5,11,17,18,19,22,23,34,35-undecahydroxy-8,14,26,31-tetraoxo-9,13,25,32-tetraoxaheptacyclo[25.8.0.0<SUP>2,7</SUP>.0<SUP>15,20</SUP>.0<SUP>21,30</SUP>.0<SUP>24,29</SUP>.0<SUP>28,33</SUP>]pentatriaconta-1(35),2,4,6,15,17,19,21,23,27,29,33-dodecaen-10-yl)-9,12-dioxatricyclo[12.4.0.0<SUP>2,7</SUP>]octadeca-1(18),2,4,6,14,16-hexaene-10-carbaldehyde

> <PUBCHEM_IUPAC_NAME>
3,4,5,16,17,18-hexahydroxy-8,13-dioxo-11-(3,4,5,11,17,18,19,22,23,34,35-undecahydroxy-8,14,26,31-tetraoxo-9,13,25,32-tetraoxaheptacyclo[25.8.0.02,7.015,20.021,30.024,29.028,33]pentatriaconta-1(35),2,4,6,15,17,19,21,23,27,29,33-dodecaen-10-yl)-9,12-dioxatricyclo[12.4.0.02,7]octadeca-1(18),2,4,6,14,16-hexaene-10-carbaldehyde

> <PUBCHEM_IUPAC_SYSTEMATIC_NAME>
3,4,5,16,17,18-hexakis(oxidanyl)-8,13-bis(oxidanylidene)-11-[3,4,5,11,17,18,19,22,23,34,35-undecakis(oxidanyl)-8,14,26,31-tetrakis(oxidanylidene)-9,13,25,32-tetraoxaheptacyclo[25.8.0.02,7.015,20.021,30.024,29.028,33]pentatriaconta-1(35),2,4,6,15,17,19,21,23,27,29,33-dodecaen-10-yl]-9,12-dioxatricyclo[12.4.0.02,7]octadeca-1(18),2,4,6,14,16-hexaene-10-carbaldehyde

> <PUBCHEM_IUPAC_TRADITIONAL_NAME>
3,4,5,16,17,18-hexahydroxy-8,13-diketo-11-(3,4,5,11,17,18,19,22,23,34,35-undecahydroxy-8,14,26,31-tetraketo-9,13,25,32-tetraoxaheptacyclo[25.8.0.02,7.015,20.021,30.024,29.028,33]pentatriaconta-1(35),2,4,6,15,17,19,21,23,27,29,33-dodecaen-10-yl)-9,12-dioxatricyclo[12.4.0.02,7]octadeca-1(18),2,4,6,14,16-hexaene-10-carbaldehyde

> <PUBCHEM_IUPAC_INCHI>
InChI=1S/C48H28O30/c49-5-16-40(76-46(70)9-3-13(52)28(56)32(60)18(9)17-8(44(68)74-16)2-12(51)27(55)31(17)59)39-15(54)6-73-43(67)7-1-11(50)29(57)33(61)19(7)21-25-23-24-26(48(72)78-41(23)37(65)35(21)63)22(36(64)38(66)42(24)77-47(25)71)20-10(45(69)75-39)4-14(53)30(58)34(20)62/h1-5,15-16,39-40,50-66H,6H2

> <PUBCHEM_IUPAC_INCHIKEY>
SKNLUADAGHCXKF-UHFFFAOYSA-N

> <PUBCHEM_XLOGP3_AA>
1.5

> <PUBCHEM_EXACT_MASS>
1084.06653947

> <PUBCHEM_MOLECULAR_FORMULA>
C48H28O30

> <PUBCHEM_MOLECULAR_WEIGHT>
1084.7

> <PUBCHEM_SMILES>
C1C(C(OC(=O)C2=CC(=C(C(=C2C3=C(C(=C4C5=C3C(=O)OC6=C(C(=C(C7=C(C(=C(C=C7C(=O)O1)O)O)O)C(=C56)C(=O)O4)O)O)O)O)O)O)O)C8C(OC(=O)C9=CC(=C(C(=C9C1=C(C(=C(C=C1C(=O)O8)O)O)O)O)O)O)C=O)O

> <PUBCHEM_CONNECTIVITY_SMILES>
C1C(C(OC(=O)C2=CC(=C(C(=C2C3=C(C(=C4C5=C3C(=O)OC6=C(C(=C(C7=C(C(=C(C=C7C(=O)O1)O)O)O)C(=C56)C(=O)O4)O)O)O)O)O)O)O)C8C(OC(=O)C9=CC(=C(C(=C9C1=C(C(=C(C=C1C(=O)O8)O)O)O)O)O)O)C=O)O

> <PUBCHEM_CACTVS_TPSA>
519

> <PUBCHEM_MONOISOTOPIC_WEIGHT>
1084.06653947

> <PUBCHEM_TOTAL_CHARGE>
0

> <PUBCHEM_HEAVY_ATOM_COUNT>
78

> <PUBCHEM_ATOM_DEF_STEREO_COUNT>
0

> <PUBCHEM_ATOM_UDEF_STEREO_COUNT>
4

> <PUBCHEM_BOND_DEF_STEREO_COUNT>
0

> <PUBCHEM_BOND_UDEF_STEREO_COUNT>
0

> <PUBCHEM_ISOTOPIC_ATOM_COUNT>
0

> <PUBCHEM_COMPONENT_COUNT>
1

> <PUBCHEM_CACTVS_TAUTO_COUNT>
-1

> <PUBCHEM_COORDINATE_TYPE>
1
5
255

> <PUBCHEM_BONDANNOTATIONS>
31  1  3
32  2  3
3  42  8
3  51  8
34  35  8
34  37  8
34  40  8
35  38  8
35  42  8
36  56  3
37  39  8
37  51  8
38  41  8
38  52  8
39  45  8
4  40  8
4  52  8
40  47  8
41  49  8
42  50  8
44  48  8
44  55  8
45  47  8
46  54  8
46  58  8
48  59  8
49  50  8
54  67  8
55  63  8
58  69  8
59  68  8
33  6  3
61  62  8
61  71  8
62  72  8
63  68  8
64  66  8
64  73  8
66  74  8
67  70  8
69  70  8
71  75  8
72  76  8
73  77  8
74  78  8
75  76  8
77  78  8

$$$$
