5315948
  -OEChem-01202622312D

 31 33  0     0  0  0  0  0  0999 V2000
    7.2901   -1.4953    0.0000 O   0  0  0  0  0  0  0  0  0  0  0  0
    7.2785    1.5740    0.0000 O   0  0  0  0  0  0  0  0  0  0  0  0
    3.7702   -1.4953    0.0000 O   0  0  0  0  0  0  0  0  0  0  0  0
    5.5301    1.5394    0.0000 O   0  0  0  0  0  0  0  0  0  0  0  0
    2.0000   -1.4848    0.0000 O   0  0  0  0  0  0  0  0  0  0  0  0
    8.1962   -0.9814    0.0000 C   0  0  0  0  0  0  0  0  0  0  0  0
    8.1962    0.0602    0.0000 C   0  0  0  0  0  0  0  0  0  0  0  0
    6.3961    0.0394    0.0000 C   0  0  0  0  0  0  0  0  0  0  0  0
    7.2901    0.5740    0.0000 C   0  0  0  0  0  0  0  0  0  0  0  0
    6.3961   -0.9606    0.0000 C   0  0  0  0  0  0  0  0  0  0  0  0
    9.1962   -0.9853    0.0000 C   0  0  0  0  0  0  0  0  0  0  0  0
    8.6928   -1.8494    0.0000 C   0  0  0  0  0  0  0  0  0  0  0  0
    5.5301    0.5394    0.0000 C   0  0  0  0  0  0  0  0  0  0  0  0
    5.5301   -1.4606    0.0000 C   0  0  0  0  0  0  0  0  0  0  0  0
    4.6641    0.0394    0.0000 C   0  0  0  0  0  0  0  0  0  0  0  0
    4.6641   -0.9606    0.0000 C   0  0  0  0  0  0  0  0  0  0  0  0
    3.7702    0.5740    0.0000 C   0  0  0  0  0  0  0  0  0  0  0  0
    2.8641    0.0602    0.0000 C   0  0  0  0  0  0  0  0  0  0  0  0
    2.8641   -0.9814    0.0000 C   0  0  0  0  0  0  0  0  0  0  0  0
    8.8070   -0.0459    0.0000 H   0  0  0  0  0  0  0  0  0  0  0  0
    8.4052    0.6439    0.0000 H   0  0  0  0  0  0  0  0  0  0  0  0
    9.1938   -1.6053    0.0000 H   0  0  0  0  0  0  0  0  0  0  0  0
    9.8162   -0.9877    0.0000 H   0  0  0  0  0  0  0  0  0  0  0  0
    9.1985   -0.3653    0.0000 H   0  0  0  0  0  0  0  0  0  0  0  0
    8.1547   -2.1573    0.0000 H   0  0  0  0  0  0  0  0  0  0  0  0
    9.0008   -2.3875    0.0000 H   0  0  0  0  0  0  0  0  0  0  0  0
    9.2310   -1.5414    0.0000 H   0  0  0  0  0  0  0  0  0  0  0  0
    5.5301   -2.0806    0.0000 H   0  0  0  0  0  0  0  0  0  0  0  0
    3.7773    1.1940    0.0000 H   0  0  0  0  0  0  0  0  0  0  0  0
    4.9932    1.8494    0.0000 H   0  0  0  0  0  0  0  0  0  0  0  0
    2.3284    0.3723    0.0000 H   0  0  0  0  0  0  0  0  0  0  0  0
  1  6  1  0  0  0  0
  1 10  1  0  0  0  0
  2  9  2  0  0  0  0
  3 16  1  0  0  0  0
  3 19  1  0  0  0  0
  4 13  1  0  0  0  0
  4 30  1  0  0  0  0
  5 19  2  0  0  0  0
  6  7  1  0  0  0  0
  6 11  1  0  0  0  0
  6 12  1  0  0  0  0
  7  9  1  0  0  0  0
  7 20  1  0  0  0  0
  7 21  1  0  0  0  0
  8  9  1  0  0  0  0
  8 10  2  0  0  0  0
  8 13  1  0  0  0  0
 10 14  1  0  0  0  0
 11 22  1  0  0  0  0
 11 23  1  0  0  0  0
 11 24  1  0  0  0  0
 12 25  1  0  0  0  0
 12 26  1  0  0  0  0
 12 27  1  0  0  0  0
 13 15  2  0  0  0  0
 14 16  2  0  0  0  0
 14 28  1  0  0  0  0
 15 16  1  0  0  0  0
 15 17  1  0  0  0  0
 17 18  2  0  0  0  0
 17 29  1  0  0  0  0
 18 19  1  0  0  0  0
 18 31  1  0  0  0  0
M  END
> <PUBCHEM_COMPOUND_CID>
5315948

> <PUBCHEM_COMPOUND_CANONICALIZED>
1

> <PUBCHEM_CACTVS_COMPLEXITY>
453

> <PUBCHEM_CACTVS_HBOND_ACCEPTOR>
5

> <PUBCHEM_CACTVS_HBOND_DONOR>
1

> <PUBCHEM_CACTVS_ROTATABLE_BOND>
0

> <PUBCHEM_CACTVS_SUBSKEYS>
AAADccBwOAAAAAAAAAAAAAAAAAAAAAAAAAA0QIAAAAAAAACRAAAAGgAACAAADESAmAAyDoAABgCIAqDSCAACCAAkIAAIiAEGCMgMJzaGNBqCe2Cl4BUIuYeI7PzOIAACCAAIAABAAAQQABAAAAAAAAAAAA==

> <PUBCHEM_IUPAC_OPENEYE_NAME>
5-hydroxy-2,2-dimethyl-3H-pyrano[3,2-g]chromene-4,8-dione

> <PUBCHEM_IUPAC_CAS_NAME>
5-hydroxy-2,2-dimethyl-3H-pyrano[3,2-g][1]benzopyran-4,8-dione

> <PUBCHEM_IUPAC_NAME_MARKUP>
5-hydroxy-2,2-dimethyl-3<I>H</I>-pyrano[3,2-g]chromene-4,8-dione

> <PUBCHEM_IUPAC_NAME>
5-hydroxy-2,2-dimethyl-3H-pyrano[3,2-g]chromene-4,8-dione

> <PUBCHEM_IUPAC_SYSTEMATIC_NAME>
2,2-dimethyl-5-oxidanyl-3H-pyrano[3,2-g]chromene-4,8-dione

> <PUBCHEM_IUPAC_TRADITIONAL_NAME>
5-hydroxy-2,2-dimethyl-3H-pyrano[3,2-g]chromene-4,8-quinone

> <PUBCHEM_IUPAC_INCHI>
InChI=1S/C14H12O5/c1-14(2)6-8(15)12-10(19-14)5-9-7(13(12)17)3-4-11(16)18-9/h3-5,17H,6H2,1-2H3

> <PUBCHEM_IUPAC_INCHIKEY>
XFSINVCSJTYZGH-UHFFFAOYSA-N

> <PUBCHEM_XLOGP3_AA>
2.2

> <PUBCHEM_EXACT_MASS>
260.06847348

> <PUBCHEM_MOLECULAR_FORMULA>
C14H12O5

> <PUBCHEM_MOLECULAR_WEIGHT>
260.24

> <PUBCHEM_SMILES>
CC1(CC(=O)C2=C(O1)C=C3C(=C2O)C=CC(=O)O3)C

> <PUBCHEM_CONNECTIVITY_SMILES>
CC1(CC(=O)C2=C(O1)C=C3C(=C2O)C=CC(=O)O3)C

> <PUBCHEM_CACTVS_TPSA>
72.8

> <PUBCHEM_MONOISOTOPIC_WEIGHT>
260.06847348

> <PUBCHEM_TOTAL_CHARGE>
0

> <PUBCHEM_HEAVY_ATOM_COUNT>
19

> <PUBCHEM_ATOM_DEF_STEREO_COUNT>
0

> <PUBCHEM_ATOM_UDEF_STEREO_COUNT>
0

> <PUBCHEM_BOND_DEF_STEREO_COUNT>
0

> <PUBCHEM_BOND_UDEF_STEREO_COUNT>
0

> <PUBCHEM_ISOTOPIC_ATOM_COUNT>
0

> <PUBCHEM_COMPONENT_COUNT>
1

> <PUBCHEM_CACTVS_TAUTO_COUNT>
-1

> <PUBCHEM_COORDINATE_TYPE>
1
5
255

> <PUBCHEM_BONDANNOTATIONS>
10  14  8
13  15  8
14  16  8
15  16  8
15  17  8
17  18  8
18  19  8
3  16  8
3  19  8
8  10  8
8  13  8

$$$$
